no title                                                                
Freq      UB3LYP                                                      6-31G(d)            
Number of atoms                            I               13
Charge                                     I                0
Multiplicity                               I                2
Number of electrons                        I               33
Number of alpha electrons                  I               17
Number of beta electrons                   I               16
Number of basis functions                  I               78
Number of independant functions            I               78
Number of point charges in /Mol/           I                0
Number of translation vectors              I                0
Info1-9                                    I   N=           9
          24          22           0           0           0         100
           6          18        -502
Num ILSW                                   I              100
ILSW                                       I   N=         100
           1           1           0           1           2           0
           0           0           0           0         402      200000
           0           0           0           0           0           0
           0      800000           0           0           1           0
           1           0           0           0     1000000           0
           0           0      100000           0          -1           0
           0           0           0           0           0           0
           0           0           0           1           0           0
           0           0           1      720000      810000           0
           0           0           0           0           0           0
           0           0           0           0           0           0
           0           0           0           0           0           0
           0           0           0           0           0           0
           0           0           0           0           0           0
           0           0           0           0           0           0
           0           0           0           0           0           0
           0           0           0           0
Number of contracted shells                I               34
Highest angular momentum                   I                2
Largest degree of contraction              I                6
Number of primitive shells                 I               80
Pure/Cartesian d shells                    I                1
Pure/Cartesian f shells                    I                0
Virial Ratio                               R      2.010417159541445E+00
SCF Energy                                 R     -1.577373950980233E+02
Total Energy                               R     -1.577373950980233E+02
S**2                                       R      7.800691904915258E-01
S**2 after annihilation                    R      7.501822409347824E-01
RMS Force                                  R      9.072720855471864E-06
RMS Density                                R      6.180170378870466E-09
Atomic numbers                             I   N=          13
           6           6           6           6           1           1
           1           1           1           1           1           1
           1
Nuclear charges                            R   N=          13
  6.00000000E+00  6.00000000E+00  6.00000000E+00  6.00000000E+00  1.00000000E+00
  1.00000000E+00  1.00000000E+00  1.00000000E+00  1.00000000E+00  1.00000000E+00
  1.00000000E+00  1.00000000E+00  1.00000000E+00
Current cartesian coordinates              R   N=          39
  3.18879749E+00 -1.12152970E+00  2.09717698E-01  1.95993834E+00  1.31003218E+00
 -5.43535001E-01 -2.26329414E+00  1.00618719E+00  6.77542196E-01 -3.36781201E+00
 -1.06919043E+00 -3.54342249E-01  5.18621234E+00 -1.19536479E+00 -3.81749430E-01
  2.23711502E+00 -2.74297997E+00 -6.60661898E-01  3.15941017E+00 -1.39312704E+00
  2.26435368E+00  2.40374112E+00  3.00227870E+00  5.39096206E-01  1.63335906E+00
  1.63859983E+00 -2.54553822E+00 -2.55659649E+00  2.86536761E+00 -1.42760131E-01
 -1.62284990E+00  9.85656221E-01  2.62855605E+00 -4.24240896E+00 -1.01373084E+00
 -2.21198916E+00 -3.30376053E+00 -2.89969514E+00  5.74397036E-01
Int Atom Types                             I   N=          13
           0           0           0           0           0           0
           0           0           0           0           0           0
           0
Force Field                                I                0
MM charges                                 R   N=          13
  0.00000000E+00  0.00000000E+00  0.00000000E+00  0.00000000E+00  0.00000000E+00
  0.00000000E+00  0.00000000E+00  0.00000000E+00  0.00000000E+00  0.00000000E+00
  0.00000000E+00  0.00000000E+00  0.00000000E+00
Integer atomic weights                     I   N=          13
          12          12          12          12           1           1
           1           1           1           1           1           1
           1
Real atomic weights                        R   N=          13
  1.20000000E+01  1.20000000E+01  1.20000000E+01  1.20000000E+01  1.00782504E+00
  1.00782504E+00  1.00782504E+00  1.00782504E+00  1.00782504E+00  1.00782504E+00
  1.00782504E+00  1.00782504E+00  1.00782504E+00
Atom residue info                          I   N=          13
           0           0           0           0           0           0
           0           0           0           0           0           0
           0
Atom fragment info                         I   N=          13
           0           0           0           0           0           0
           0           0           0           0           0           0
           0
Atom residue num                           I   N=          13
           0           0           0           0           0           0
           0           0           0           0           0           0
           0
Nuclear spins                              I   N=          13
           0           0           0           0           1           1
           1           1           1           1           1           1
           1
Nuclear ZEff                               R   N=          13
 -3.60000000E+00 -3.60000000E+00 -3.60000000E+00 -3.60000000E+00 -1.00000000E+00
 -1.00000000E+00 -1.00000000E+00 -1.00000000E+00 -1.00000000E+00 -1.00000000E+00
 -1.00000000E+00 -1.00000000E+00 -1.00000000E+00
Nuclear QMom                               R   N=          13
  0.00000000E+00  0.00000000E+00  0.00000000E+00  0.00000000E+00  0.00000000E+00
  0.00000000E+00  0.00000000E+00  0.00000000E+00  0.00000000E+00  0.00000000E+00
  0.00000000E+00  0.00000000E+00  0.00000000E+00
Nuclear GFac                               R   N=          13
  0.00000000E+00  0.00000000E+00  0.00000000E+00  0.00000000E+00  2.79284600E+00
  2.79284600E+00  2.79284600E+00  2.79284600E+00  2.79284600E+00  2.79284600E+00
  2.79284600E+00  2.79284600E+00  2.79284600E+00
MicOpt                                     I   N=          13
          -1          -1          -1          -1          -1          -1
          -1          -1          -1          -1          -1          -1
          -1
Constraint Structure                       R   N=          39
  3.18879749E+00 -1.12152970E+00  2.09717698E-01  1.95993834E+00  1.31003218E+00
 -5.43535001E-01 -2.26329414E+00  1.00618719E+00  6.77542196E-01 -3.36781201E+00
 -1.06919043E+00 -3.54342249E-01  5.18621234E+00 -1.19536479E+00 -3.81749430E-01
  2.23711502E+00 -2.74297997E+00 -6.60661898E-01  3.15941017E+00 -1.39312704E+00
  2.26435368E+00  2.40374112E+00  3.00227870E+00  5.39096206E-01  1.63335906E+00
  1.63859983E+00 -2.54553822E+00 -2.55659649E+00  2.86536761E+00 -1.42760131E-01
 -1.62284990E+00  9.85656221E-01  2.62855605E+00 -4.24240896E+00 -1.01373084E+00
 -2.21198916E+00 -3.30376053E+00 -2.89969514E+00  5.74397036E-01
ONIOM Charges                              I   N=          16
           0           0           0           0           0           0
           0           0           0           0           0           0
           0           0           0           0
ONIOM Multiplicities                       I   N=          16
           2           0           0           0           0           0
           0           0           0           0           0           0
           0           0           0           0
Atom Layers                                I   N=          13
           1           1           1           1           1           1
           1           1           1           1           1           1
           1
Atom Modifiers                             I   N=          13
           0           0           0           0           0           0
           0           0           0           0           0           0
           0
Int Atom Modified Types                    I   N=          13
           0           0           0           0           0           0
           0           0           0           0           0           0
           0
Link Atoms                                 I   N=          13
           0           0           0           0           0           0
           0           0           0           0           0           0
           0
Atom Modified MM Charges                   R   N=          13
  0.00000000E+00  0.00000000E+00  0.00000000E+00  0.00000000E+00  0.00000000E+00
  0.00000000E+00  0.00000000E+00  0.00000000E+00  0.00000000E+00  0.00000000E+00
  0.00000000E+00  0.00000000E+00  0.00000000E+00
Link Distances                             R   N=          52
  0.00000000E+00  0.00000000E+00  0.00000000E+00  0.00000000E+00  0.00000000E+00
  0.00000000E+00  0.00000000E+00  0.00000000E+00  0.00000000E+00  0.00000000E+00
  0.00000000E+00  0.00000000E+00  0.00000000E+00  0.00000000E+00  0.00000000E+00
  0.00000000E+00  0.00000000E+00  0.00000000E+00  0.00000000E+00  0.00000000E+00
  0.00000000E+00  0.00000000E+00  0.00000000E+00  0.00000000E+00  0.00000000E+00
  0.00000000E+00  0.00000000E+00  0.00000000E+00  0.00000000E+00  0.00000000E+00
  0.00000000E+00  0.00000000E+00  0.00000000E+00  0.00000000E+00  0.00000000E+00
  0.00000000E+00  0.00000000E+00  0.00000000E+00  0.00000000E+00  0.00000000E+00
  0.00000000E+00  0.00000000E+00  0.00000000E+00  0.00000000E+00  0.00000000E+00
  0.00000000E+00  0.00000000E+00  0.00000000E+00  0.00000000E+00  0.00000000E+00
  0.00000000E+00  0.00000000E+00
MxBond                                     I                4
NBond                                      I   N=          13
           4           3           3           3           1           1
           1           1           1           1           1           1
           1
IBond                                      I   N=          52
           2           5           6           7           1           8
           9           0           4          10          11           0
           3          12          13           0           1           0
           0           0           1           0           0           0
           1           0           0           0           2           0
           0           0           2           0           0           0
           3           0           0           0           3           0
           0           0           4           0           0           0
           4           0           0           0
RBond                                      R   N=          52
  1.00000000E+00  1.00000000E+00  1.00000000E+00  1.00000000E+00  1.00000000E+00
  1.00000000E+00  1.00000000E+00  0.00000000E+00  2.00000000E+00  1.00000000E+00
  1.00000000E+00  0.00000000E+00  2.00000000E+00  1.00000000E+00  1.00000000E+00
  0.00000000E+00  1.00000000E+00  0.00000000E+00  0.00000000E+00  0.00000000E+00
  1.00000000E+00  0.00000000E+00  0.00000000E+00  0.00000000E+00  1.00000000E+00
  0.00000000E+00  0.00000000E+00  0.00000000E+00  1.00000000E+00  0.00000000E+00
  0.00000000E+00  0.00000000E+00  1.00000000E+00  0.00000000E+00  0.00000000E+00
  0.00000000E+00  1.00000000E+00  0.00000000E+00  0.00000000E+00  0.00000000E+00
  1.00000000E+00  0.00000000E+00  0.00000000E+00  0.00000000E+00  1.00000000E+00
  0.00000000E+00  0.00000000E+00  0.00000000E+00  1.00000000E+00  0.00000000E+00
  0.00000000E+00  0.00000000E+00
Cartesian Gradient                         R   N=          39
  5.90942080E-06  6.63089091E-06 -2.14870153E-06 -7.95185429E-06 -9.24503330E-07
  3.54669409E-06  2.10702250E-07 -1.16422433E-07 -1.78852096E-06 -3.17334378E-06
 -1.02295934E-05  4.13486316E-06  3.84201203E-06  1.43860098E-05 -6.42325319E-06
  1.05162582E-05  6.12184073E-06 -1.01585367E-05  6.65726507E-06  1.59817857E-06
 -7.04515800E-06  3.57495395E-06 -8.71984615E-07  1.94224111E-05 -7.66999995E-06
  1.66610108E-05  9.76835452E-06 -2.03313766E-05 -8.32991776E-06  2.93714051E-06
 -2.19215558E-06 -9.61118520E-06  1.29406430E-06 -7.61494385E-06 -7.38161778E-08
  2.64891107E-06  1.82230618E-05 -1.52405079E-05 -1.61882683E-05
Cartesian Force Constants                  R   N=         780
  5.05473364E-01  2.75313287E-02  5.15555371E-01  8.20689451E-03  1.66716751E-02
  5.65124114E-01 -8.18562658E-02  5.58028134E-02 -2.67097706E-02  1.20952526E-01
  6.48082568E-02 -1.95665583E-01  3.20218120E-02 -4.98779673E-02  5.44489412E-01
 -2.95964580E-02  3.25224550E-02 -9.61575532E-02  1.41105264E-01  4.51516762E-02
  5.65196963E-01 -1.09815576E-02  4.12880972E-03  1.76166789E-03  8.54734330E-02
  1.07482648E-02 -2.30498939E-02  1.01902775E-01  1.92915495E-03  1.33124581E-03
 -8.46068709E-04  4.37979534E-02 -7.29240280E-03 -1.05962224E-02  4.72665020E-02
  7.03091354E-01 -1.21798095E-03  1.93475242E-05  1.03880084E-03 -6.73839256E-04
 -3.45619887E-04 -1.23703645E-02  2.16082042E-01  2.01992258E-02  5.87828595E-01
  5.38361203E-04 -1.67637741E-03  3.78521352E-04 -2.98373504E-02 -9.14411490E-03
  3.19007668E-03 -8.82808269E-02 -1.25741844E-01 -9.33824734E-02  2.41294472E-01
  3.09607838E-03 -1.45638595E-03 -3.03211926E-04 -4.29658623E-02 -4.98210416E-03
  9.72650244E-03 -8.16997263E-02 -3.33513411E-01 -1.21939007E-01  1.38211433E-01
  6.87727695E-01  1.42627030E-03 -9.63298592E-04 -5.14879517E-04 -1.89579871E-02
 -8.18878477E-04  6.38618263E-03 -6.38134981E-02 -1.07065887E-01 -1.63735624E-01
  2.27372620E-01 -1.41138837E-02  5.53369736E-01 -2.68864867E-01 -1.65039976E-03
  7.02849984E-02 -1.36427642E-02  8.01896697E-03  6.22936716E-04  7.46273971E-04
  9.39095581E-04 -7.97060025E-04  3.59058516E-04 -4.36535094E-05  2.00018308E-04
  2.96862493E-01  8.28858484E-03 -4.39086863E-02 -3.41324208E-03  2.85372304E-02
 -5.64760429E-03 -6.94576040E-03 -4.95126837E-04 -7.76098714E-04  6.45800173E-04
  3.16305911E-04  5.30775236E-04  1.30361837E-04 -6.64280646E-03  4.87005364E-02
  6.61042453E-02 -2.31562423E-04 -6.75152799E-02 -8.72500483E-03 -5.54898583E-04
  3.20544090E-03 -4.08133897E-04  1.67591560E-04 -1.55293975E-05 -2.25537997E-05
  3.60835453E-05  1.29696998E-04 -7.56364407E-02  4.48005871E-04  6.92871877E-02
 -1.03668781E-01 -9.67864949E-02 -5.32719612E-02  7.54982662E-03  1.38264367E-02
  9.07225309E-03  8.14829725E-05  3.29052429E-04  2.76785927E-05  6.76710289E-04
 -2.48228353E-04 -2.24630880E-04 -1.55166785E-02 -2.46666656E-02 -1.45200400E-02
  1.12232730E-01 -9.61105303E-02 -2.04121712E-01 -8.58289452E-02 -1.00238310E-02
 -2.49220426E-02 -1.39411025E-02 -1.44318326E-03 -1.53043600E-04 -9.50166285E-05
  3.25455455E-04  1.03404772E-03  6.02993453E-04 -5.89245757E-04  8.94563985E-04
  6.28874277E-04  1.02568889E-01  2.25531573E-01 -5.26169513E-02 -8.44933276E-02
 -9.92736456E-02  5.66601848E-03  5.97008988E-03  5.44729377E-03 -1.42649870E-04
 -1.09232094E-04 -3.15452878E-04  1.44745203E-05  1.20394076E-05  1.28793624E-04
  4.90356476E-03  8.56470799E-03  4.20585995E-03  5.86553354E-02  9.41701658E-02
  1.01023223E-01 -4.69940231E-02 -2.84642349E-03  5.75168561E-03 -1.96408457E-03
  2.39607149E-03 -1.71293180E-02  4.46048272E-04 -2.66966853E-06 -6.26261065E-04
 -3.28927372E-05 -1.12276080E-04  1.73752303E-04 -3.74985120E-04 -3.43454814E-03
  3.27621222E-02  8.19526852E-06  3.16140660E-03 -1.59225270E-02  4.89248065E-02
 -2.34097261E-03 -5.43054601E-02  2.92431105E-02  1.12309060E-03 -2.61545163E-03
  3.10565001E-02 -7.32941413E-04 -4.58886291E-05  3.68608406E-04  1.79244096E-04
  3.34176096E-04 -3.92519751E-05 -6.92869464E-04 -3.37704069E-04 -1.98184794E-04
  2.55515825E-03  4.34753107E-03 -2.57144346E-02 -2.10481248E-03  5.62503697E-02
  5.19364568E-03  2.91080648E-02 -3.05571504E-01 -1.63174491E-03  2.08160584E-03
 -7.15186312E-03  7.01732577E-04  4.07405847E-05 -9.84117513E-06 -5.03025584E-04
 -3.28027835E-04  1.74137066E-05  8.20101280E-04  4.06460442E-04 -9.74647601E-03
  1.07433299E-03  1.57184254E-03 -1.22953728E-02 -5.54734521E-03 -3.48663386E-02
  3.32243774E-01  6.83916497E-03  1.45359702E-02  8.79822832E-03 -3.64012641E-02
 -5.43791008E-02 -5.03528792E-02 -6.68250870E-03 -6.09282277E-03 -2.19154864E-03
 -7.45385384E-04  1.86847667E-03  1.69316064E-03  2.47436613E-05 -1.35880377E-03
 -1.12161709E-05 -1.18255816E-03  1.72701870E-03 -1.39791923E-03  6.00086352E-05
 -7.50083595E-04 -2.62396835E-04  3.54339903E-02 -9.26932467E-03 -1.64848220E-02
 -1.38392694E-02 -4.29584232E-02 -2.43101152E-01 -1.26798013E-01  5.41459975E-04
  2.98821204E-04 -3.55228630E-04 -4.21246962E-04 -2.28904638E-04  2.53916641E-04
  3.75445580E-04 -3.64495997E-05 -2.39660674E-04  3.33949000E-03 -4.00255437E-03
  1.56871241E-03 -4.35035794E-04  1.20538798E-03  2.88897563E-04  4.76100905E-02
  2.55893042E-01  1.64132051E-03  7.83360883E-03  6.64566103E-03 -4.27854462E-02
 -1.22255824E-01 -1.32320493E-01  4.13209218E-03  2.89385117E-03  8.97434706E-04
 -1.84620656E-04 -1.04996324E-03 -7.81207053E-04 -2.11118924E-04  3.89246240E-04
  1.03972952E-04 -9.02099168E-04  2.79545659E-03  7.60793030E-04  9.22131819E-04
 -6.14683164E-04  9.85259526E-04  4.54768663E-02  1.34411414E-01  1.34640351E-01
 -2.72123592E-05  2.14373508E-03 -1.60917445E-02 -2.59620152E-02  1.03063326E-02
 -4.41538712E-02 -8.30935430E-03 -4.46823090E-03  5.42986629E-03  1.79454136E-03
  3.08679519E-03  1.66502437E-03  6.32056009E-04 -1.02220372E-03  7.40594702E-04
  1.01960015E-04  2.49770589E-04  8.21018288E-04 -1.15061171E-04  2.62605829E-03
  4.35539522E-04  1.78895366E-03  1.45887399E-03 -7.39748349E-03  3.02299912E-02
  2.09325000E-03 -8.53245261E-04  2.69974964E-02  1.29578484E-02 -6.13250246E-02
  4.04044296E-02 -1.29607482E-03 -3.93649834E-04  3.29836598E-04  2.86453162E-04
  1.44906123E-04  3.50782220E-04  3.57542882E-04  4.38450296E-04 -2.23461679E-04
 -8.43356222E-04  1.27386567E-03 -2.73738402E-04  3.30900707E-03 -4.73439055E-03
  1.62832019E-03 -2.82484521E-03  6.34248721E-03 -2.47394726E-02 -1.42254506E-02
  5.91060490E-02  1.17293480E-03 -9.31361018E-04 -3.61611603E-03 -5.81121238E-02
  3.93841238E-02 -3.28128200E-01  4.27453119E-04  4.49322074E-04 -9.52140148E-04
 -4.67632231E-05 -4.50430839E-05  5.30398525E-04 -3.57097949E-04  1.91799952E-04
  2.32692483E-05 -3.41283566E-05  3.17748468E-04  4.79831746E-04 -8.86449500E-04
  1.15658251E-03  1.10450424E-03 -1.22230319E-03  4.37893241E-03 -1.13303353E-02
  5.86159805E-02 -4.43086268E-02  3.41478369E-01 -1.25828781E-03 -4.91966032E-04
  4.58424730E-04 -1.29428010E-02  4.57232057E-03  5.39552160E-04 -2.79813128E-02
  4.67640546E-02 -2.69893436E-02  7.88167928E-04 -2.12143673E-02  3.69072049E-03
 -4.40964120E-04  4.13737856E-04  2.63066132E-05  6.70612379E-05 -1.66539891E-04
 -1.47531438E-05  1.23341846E-04 -1.32144063E-04  1.53109170E-04  2.34232003E-04
 -1.65403564E-04 -5.68153290E-04  6.79416584E-04  2.46572148E-04  2.88266423E-04
  4.04487636E-02  1.00908464E-04  1.96871115E-05 -1.47467862E-04  1.29890497E-03
  4.40583474E-04 -5.36835185E-05  3.23389614E-02 -2.87683178E-01  1.05436387E-01
  4.35688642E-03 -1.93492053E-02  1.29510082E-02 -9.12129284E-06  1.25813534E-05
  2.99820182E-05 -5.13591770E-05  2.36060966E-05  9.18748257E-05 -4.98467123E-05
 -1.76950963E-05 -4.65314855E-05 -4.94585757E-05  1.83231299E-04  9.32400303E-05
 -4.15284087E-05 -7.30483810E-06 -4.02107547E-04 -3.46624950E-02  3.04579470E-01
  2.89342109E-04  2.96000170E-04 -5.62164903E-04  6.72497128E-03 -1.35550439E-03
 -2.80285808E-04 -3.31457206E-02  1.01257956E-01 -1.03684719E-01  4.19421946E-03
 -8.78658202E-03  1.10437793E-02  2.10951862E-04 -2.47249954E-04  1.89363966E-04
 -2.44704837E-05 -5.84369685E-05  1.89341102E-05  8.81209320E-05 -7.10873851E-05
  1.95542372E-04 -4.66815081E-04 -2.39664025E-05 -2.46518496E-05 -1.18808716E-04
 -2.30567363E-04 -4.13773690E-06  2.70915440E-02 -1.13998976E-01  9.91780779E-02
  7.75907967E-04 -5.11275894E-04  4.99060069E-04 -1.17486414E-02 -1.41721517E-03
  9.77649858E-03 -4.80489778E-02  8.82333158E-03 -8.85148188E-02 -6.54231747E-03
 -6.35867045E-03 -1.77539005E-02  1.62274414E-04 -6.73477396E-05 -3.05304698E-04
  8.83278039E-05  3.74340937E-05 -1.94792819E-05 -1.12459105E-04  2.72596424E-04
 -4.63772374E-04  4.12046211E-04 -1.86664806E-04 -1.47721091E-04 -6.86430116E-04
  4.86146500E-05  3.76609529E-05 -1.53560838E-03 -9.78831404E-04 -3.20015379E-03
  6.48279746E-02 -3.13967277E-05  1.47295260E-04 -5.62726186E-04  2.23862971E-03
  8.33430868E-04 -5.01107353E-04 -2.05846561E-03 -6.06429452E-02  8.32094427E-03
 -8.41336369E-03  6.28796644E-03 -2.56498203E-02 -6.33858476E-05 -1.12863732E-04
  1.87636858E-04 -4.42825024E-05 -1.04544625E-04 -3.29954770E-05  1.80050728E-04
 -2.12774195E-05  2.38119932E-04 -3.41649970E-04 -2.18594147E-04  1.82559751E-04
 -3.43004114E-05 -7.05510681E-05 -2.07909375E-04  7.44979753E-03  2.56804362E-03
  2.51046218E-02  3.35332004E-03  5.33269596E-02 -4.77714148E-04 -6.06010655E-05
  5.16460042E-05  4.30401360E-03  7.08643736E-04 -3.67130098E-03 -9.97295474E-02
  4.03796130E-03 -3.10571018E-01 -2.52180335E-03  3.97741539E-03 -7.51552727E-03
  7.04339492E-05 -7.99539913E-05  1.96238338E-04  4.29209709E-07  8.91379364E-06
  4.15451802E-06  3.80404412E-04 -3.05704445E-04  2.51222043E-04 -6.15994130E-05
  3.68714273E-04  2.88503318E-04  2.36565289E-04  1.26033149E-04  3.47945662E-04
 -2.57409479E-03 -1.26505534E-03 -7.61812564E-03  1.01334434E-01 -5.65845509E-03
  3.25857645E-01 -7.66487388E-05  5.01571455E-05  2.33440457E-05  2.83448645E-04
  2.35192283E-04 -1.88971756E-04 -2.68205212E-03  7.36769847E-04 -1.42544046E-02
 -8.48918126E-02 -1.67836102E-04 -1.17771702E-01 -1.19492408E-05 -4.77500209E-05
  1.48954243E-05 -8.55613638E-05  6.21942191E-05 -1.51196361E-04  8.45045635E-05
  8.16590535E-06  1.09231830E-04  1.59887310E-04  2.23440172E-05  7.69953532E-05
 -1.50739946E-04 -1.11028939E-04  1.49182865E-04 -4.55915060E-03  3.84394449E-04
  3.15255003E-03  7.26616546E-03 -3.55144908E-03 -2.92382316E-03  8.27681577E-02
 -4.49769366E-06 -6.67758513E-05  2.88749177E-05 -2.48323352E-04 -1.17791279E-04
  1.63759628E-05 -1.02652210E-02  5.19072201E-03 -2.56417737E-02 -5.85766433E-04
 -5.83883361E-02  1.57971960E-02 -4.67868964E-06  7.73987987E-05 -1.37781147E-05
 -5.79241256E-06  3.08240088E-05  1.03733915E-04  4.18898875E-06 -7.04084399E-05
 -4.02404789E-05  3.87907771E-05  5.12322228E-05  1.83658829E-05 -8.08051430E-05
  4.78380795E-05  9.03707036E-05  1.57790300E-03  1.28094842E-03 -4.06666933E-04
 -4.38348756E-03 -3.11113927E-03 -1.24401592E-03  2.76720609E-03  5.30074999E-02
 -8.15232923E-05 -4.28530422E-05  4.66151761E-05  4.10192977E-04  5.54961581E-05
 -1.32285344E-04 -4.30849508E-03  1.95256252E-03 -7.75120920E-03 -1.21127269E-01
  1.30001169E-02 -2.84466610E-01 -6.15878343E-05  1.29830621E-05  1.13771122E-05
  3.07419939E-05 -9.54257792E-06 -3.65301372E-05  6.38933211E-05 -2.26812777E-05
  3.61617859E-05 -2.43827295E-05  3.58872358E-05  6.51676123E-05 -1.55184248E-04
 -4.00069456E-05  5.22781633E-05  2.82493339E-03 -3.86929481E-04 -2.46484496E-04
 -4.44600997E-03 -1.18432753E-03  2.10459439E-03  1.31978407E-01 -1.20099014E-02
  2.98814715E-01  1.00845341E-04 -2.29876732E-04 -8.93486369E-05  9.59528033E-05
 -9.34440926E-05  1.64810690E-04  4.31657723E-03 -1.42803466E-02  7.10814367E-03
 -3.51207257E-02  6.54783751E-03 -1.76998478E-02  6.53085117E-05  1.79393309E-04
 -1.94701312E-05 -3.52715211E-04  2.01161459E-04  2.05064749E-04 -5.33992971E-05
 -1.04899443E-05 -7.94081425E-05  5.86895359E-05  8.83949309E-05 -5.27633500E-05
  2.38942267E-05  1.46746838E-06 -3.26126405E-05  6.37714147E-03 -2.63741523E-03
 -4.79573099E-03 -4.85826214E-03  1.31649583E-03  1.96230211E-03  1.89575095E-03
  1.11904834E-02 -5.10371668E-03  2.74509423E-02 -9.08401141E-05 -1.90928458E-04
 -2.20376065E-05  3.17936321E-04 -9.42687296E-05 -4.20502844E-05  2.96674128E-03
 -1.94115243E-02  1.30564960E-02  2.30693608E-03 -2.78141220E-01  1.18564762E-01
  5.10977721E-06  1.65100658E-04 -3.66278633E-05  2.71526911E-05  1.67885502E-04
  1.42403867E-04 -6.51125112E-05  1.08111145E-05 -8.29135073E-05  1.64178189E-05
  9.82752655E-05  4.21997964E-05  9.53368328E-07  3.05698184E-05 -7.38320370E-05
 -4.19146988E-03 -2.05076821E-03 -1.47954054E-03  1.36819624E-03  1.11821958E-03
 -6.13895787E-04 -3.88359811E-04  2.06798750E-03 -1.36080363E-03 -2.27366127E-03
  2.96229860E-01 -4.40255199E-05  2.71852306E-04  3.04306215E-04 -6.14543704E-04
 -4.27227239E-05 -2.35343745E-05  1.49295126E-03 -1.23818009E-02  9.64106840E-03
 -1.73614025E-02  1.19813561E-01 -1.14592153E-01 -4.96998136E-05 -1.03159138E-04
 -7.51218832E-05  1.16558742E-04 -1.62951184E-04 -1.47882147E-04 -3.02097682E-05
  7.56476079E-06 -5.88203817E-05  2.28052337E-05 -5.03369048E-05  6.95433858E-05
 -2.74968560E-05 -2.10242808E-05  1.43326459E-05 -4.92651208E-03 -2.30174057E-03
  1.79487169E-03  3.20350719E-03 -2.36541304E-04  2.74023064E-04 -2.14509371E-04
  2.33014591E-02 -8.49778961E-03  1.84325772E-02 -1.28094160E-01  1.11297156E-01
Dipole Moment                              R   N=           3
  1.74210593E-01  4.62275482E-02  4.82191023E-04
Dipole Derivatives                         R   N=         117
 -3.88982670E-02  3.82309990E-02 -2.65412117E-02 -5.43025101E-02  2.02804445E-02
 -3.07851582E-03  6.59383402E-02 -9.91517337E-03  8.12521616E-02  8.08133302E-02
 -1.13598677E-02  6.41938897E-02 -8.77460488E-02  1.37468556E-01  2.04052823E-02
  1.07235269E-01  1.84573862E-02  1.25878883E-01  1.01990847E-01  3.89389238E-02
  2.54740115E-02  1.40841705E-02  7.51571110E-02 -3.07532397E-02 -1.13966931E-02
 -2.80717868E-02  7.51858843E-02 -4.03990862E-01  1.40586430E-02  1.70806178E-01
 -1.49401612E-02 -1.70053129E-03 -7.49732891E-02  1.79635154E-01 -9.15253398E-02
  2.74082605E-02 -2.14450531E-01  3.77886661E-02  5.70506646E-02  1.19270581E-01
  4.35613852E-02  1.06314624E-02  2.61672712E-02  7.76056227E-03  5.34631488E-02
  3.42354307E-02 -9.01983806E-02 -4.27940473E-02 -1.64650593E-02 -8.24963969E-02
 -4.99805174E-02 -5.99077716E-02 -5.34551776E-02  2.46756076E-02  7.07960486E-02
  9.81320212E-03  1.68524591E-02  4.08736308E-02  2.98335252E-02  2.56126031E-02
 -2.80199998E-02  4.86493745E-02 -1.56676707E-01  1.42252514E-02 -4.70564299E-02
 -4.21544180E-02  3.50129300E-03 -1.17205050E-01 -5.09226094E-02 -1.39714441E-02
 -4.90757741E-02 -6.77747675E-03 -6.90496199E-03  3.18069596E-03 -1.67713445E-02
  1.75889026E-02 -1.26258861E-02  3.26549911E-02 -3.21478230E-02  4.99465318E-02
 -1.16021119E-01  6.74588096E-02  2.66026075E-02 -2.14266733E-02  3.21984253E-02
 -7.88630361E-02  3.58437532E-02 -1.76209509E-02  4.49750529E-02  2.72952619E-02
  7.61841964E-02 -6.15927383E-03 -5.65991755E-02  4.39274355E-03  3.29448867E-02
  4.05094281E-03 -4.79886563E-02 -5.60586484E-03 -8.61047484E-02  9.57740525E-02
 -1.63270192E-02 -8.55603531E-02 -2.62373519E-02  3.41440553E-02  2.33527997E-02
 -1.14615899E-01 -2.42541393E-03 -6.89918928E-02  1.22766655E-01  2.48723363E-03
 -4.25299792E-02 -3.22186153E-02 -8.04990630E-02  5.71563369E-02 -5.33067959E-02
  7.02856227E-02  1.94127361E-02
Polarizability                             R   N=           6
  6.19691085E+01  7.32895682E+00  4.69929309E+01  3.22851771E+00  9.02575443E-01
  3.95888798E+01
Anisotropic Hyperfine tensors              R   N=          78
  4.89966877E-03 -1.63695769E-02  7.26299024E-03  8.86738071E-04 -3.84204077E-03
 -1.21626590E-02  7.14368240E-01  1.99830310E-01 -3.97662510E-01 -3.57910517E-01
 -6.07825254E-02 -3.16705730E-01 -1.29603733E-01  4.24122013E-02  9.08054288E-02
  9.83200750E-02 -3.74795378E-03  3.87983047E-02  2.97554801E-01 -1.20439284E-01
 -2.02542016E-01 -2.61776188E-01  5.58341361E-02 -9.50127853E-02  6.35058300E-03
 -7.89839035E-03  1.65314106E-03 -1.50809518E-04 -2.16298971E-03 -8.00372406E-03
 -2.56218382E-03 -4.15625676E-03  1.22876250E-02 -6.93985842E-04  3.38540793E-04
 -9.72544120E-03 -2.74404724E-03 -4.74103085E-03  1.56904116E-03  5.68155101E-03
 -1.01935201E-02  1.17500608E-03 -8.65435541E-03  2.56216852E-02  2.48056046E-02
 -1.42642204E-03  4.91878897E-02 -1.61512492E-02 -9.03283897E-03  5.72301280E-03
 -4.98646582E-02  5.37638693E-03 -1.94316423E-02  5.88974972E-02  1.12530835E-02
 -1.13934471E-03 -5.90975611E-03  1.03152705E-03  8.36316487E-03 -5.34332740E-03
  3.76795713E-03  4.60818971E-03  2.16327747E-03 -1.10930476E-02  2.61205868E-03
 -5.93123460E-03  5.69589504E-03 -4.88789376E-03 -2.90224060E-02  1.35128184E-02
 -6.44993512E-04  2.33265110E-02 -5.77894811E-03 -5.33411480E-03  1.79820836E-02
 -9.78844694E-03 -2.30358308E-02 -1.22031355E-02
Isotropic Hyperfine splittings             R   N=          13
 -2.00043862E-02  1.76043355E-01 -1.82485769E-02  4.61050025E-02  2.12702816E-02
  4.90699061E-03  3.93865997E-03 -9.20481432E-03 -1.02972146E-02  7.30817873E-03
  7.22758811E-03 -6.50445855E-03 -6.59883391E-03
QEq coupling tensors                       R   N=          78
 -1.09041924E-02  2.36849488E-02 -6.21375247E-03  6.08928140E-03  1.57352994E-02
  1.71179448E-02 -1.31189105E-01 -3.19333018E-02  5.74137208E-02  6.89854973E-02