Freq computation on ethene                                             
Freq      RB3LYP                                                      6-31G(d)
Number of atoms                            I                6
Charge                                     I                0
Multiplicity                               I                1
Number of electrons                        I               16
Number of alpha electrons                  I                8
Number of beta electrons                   I                8
Number of basis functions                  I               38
Number of independant functions            I               38
Number of contracted shells                I               16
Highest angular momentum                   I                2
Largest degree of contraction              I                6
Number of primitive shells                 I               38
Viriral Ratio                              R      2.010511807109986E+00
SCF Energy                                 R     -7.858745828877478E+01
Total Energy                               R     -7.858745828877478E+01
RMS Force                                  R      2.408134766117929E-05
RMS Density                                R      3.090603315282495E-09
Atomic numbers                             I   N=           6
           6           6           1           1           1           1
Nuclear charges                            R   N=           6
  6.00000000E+00  6.00000000E+00  1.00000000E+00  1.00000000E+00  1.00000000E+00
  1.00000000E+00
Current cartesian coordinates              R   N=          18
 -3.57251062E-33  7.75053151E-33  1.25759564E+00  1.54005961E-16  1.62125376E-32
 -1.25759564E+00  3.13381662E-49  1.74547051E+00 -2.34228093E+00 -2.13751428E-16
 -1.74547051E+00 -2.34228093E+00 -2.13751428E-16 -1.74547051E+00  2.34228093E+00
 -2.86837211E-16  1.74547051E+00  2.34228093E+00
Atom types                                 I   N=           6
           0           0           0           0           0           0
Force Field                                I                0
MM charges                                 R   N=           6
  0.00000000E+00  0.00000000E+00  0.00000000E+00  0.00000000E+00  0.00000000E+00
  0.00000000E+00
ONIOM Charges                              I   N=           4
           0           0           0           0
ONIOM Multiplicities                       I   N=           4
           1           0           0           0
Atom Layers                                I   N=           6
           1           1           1           1           1           1
Atom Modifiers                             I   N=           6
           0           0           0           0           0           0
Atom types                                 I   N=           6
           0           0           0           0           0           0
Link Atoms                                 I   N=           6
           0           0           0           0           0           0
Atom Modified MM Charges                   R   N=           6
  0.00000000E+00  0.00000000E+00  0.00000000E+00  0.00000000E+00  0.00000000E+00
  0.00000000E+00
Link Distances                             R   N=           6
  0.00000000E+00  0.00000000E+00  0.00000000E+00  0.00000000E+00  0.00000000E+00
  0.00000000E+00
MxBond                                     I                3
NBond                                      I   N=           6
           3           3           1           1           1           1
IBond                                      I   N=          18
           2           5           6           1           3           4
           2           0           0           2           0           0
           1           0           0           1           0           0
RBond                                      R   N=          18
  2.00000000E+00  1.00000000E+00  1.00000000E+00  2.00000000E+00  1.00000000E+00
  1.00000000E+00  1.00000000E+00  0.00000000E+00  0.00000000E+00  1.00000000E+00
  0.00000000E+00  0.00000000E+00  1.00000000E+00  0.00000000E+00  0.00000000E+00
  1.00000000E+00  0.00000000E+00  0.00000000E+00
Shell types                                I   N=          16
           0          -1          -1           2           0          -1
          -1           2           0           0           0           0
           0           0           0           0
Number of primitives per shell             I   N=          16
           6           3           1           1           6           3
           1           1           3           1           3           1
           3           1           3           1
Shell to atom map                          I   N=          16
           1           1           1           1           2           2
           2           2           3           3           4           4
           5           5           6           6
Primitive exponents                        R   N=          38
  3.04752488E+03  4.57369518E+02  1.03948685E+02  2.92101553E+01  9.28666296E+00
  3.16392696E+00  7.86827235E+00  1.88128854E+00  5.44249258E-01  1.68714478E-01
  8.00000000E-01  3.04752488E+03  4.57369518E+02  1.03948685E+02  2.92101553E+01
  9.28666296E+00  3.16392696E+00  7.86827235E+00  1.88128854E+00  5.44249258E-01
  1.68714478E-01  8.00000000E-01  1.87311370E+01  2.82539436E+00  6.40121692E-01
  1.61277759E-01  1.87311370E+01  2.82539436E+00  6.40121692E-01  1.61277759E-01
  1.87311370E+01  2.82539436E+00  6.40121692E-01  1.61277759E-01  1.87311370E+01
  2.82539436E+00  6.40121692E-01  1.61277759E-01
Contraction coefficients                   R   N=          38
  1.83473713E-03  1.40373228E-02  6.88426223E-02  2.32184443E-01  4.67941348E-01
  3.62311985E-01 -1.19332420E-01 -1.60854152E-01  1.14345644E+00  1.00000000E+00
  1.00000000E+00  1.83473713E-03  1.40373228E-02  6.88426223E-02  2.32184443E-01
  4.67941348E-01  3.62311985E-01 -1.19332420E-01 -1.60854152E-01  1.14345644E+00
  1.00000000E+00  1.00000000E+00  3.34946043E-02  2.34726953E-01  8.13757326E-01
  1.00000000E+00  3.34946043E-02  2.34726953E-01  8.13757326E-01  1.00000000E+00
  3.34946043E-02  2.34726953E-01  8.13757326E-01  1.00000000E+00  3.34946043E-02
  2.34726953E-01  8.13757326E-01  1.00000000E+00
P(S=P) Contraction coefficients            R   N=          38
  0.00000000E+00  0.00000000E+00  0.00000000E+00  0.00000000E+00  0.00000000E+00
  0.00000000E+00  6.89990666E-02  3.16423961E-01  7.44308291E-01  1.00000000E+00
  0.00000000E+00  0.00000000E+00  0.00000000E+00  0.00000000E+00  0.00000000E+00
  0.00000000E+00  0.00000000E+00  6.89990666E-02  3.16423961E-01  7.44308291E-01
  1.00000000E+00  0.00000000E+00  0.00000000E+00  0.00000000E+00  0.00000000E+00
  0.00000000E+00  0.00000000E+00  0.00000000E+00  0.00000000E+00  0.00000000E+00
  0.00000000E+00  0.00000000E+00  0.00000000E+00  0.00000000E+00  0.00000000E+00
  0.00000000E+00  0.00000000E+00  0.00000000E+00
Coordinates of each shell                  R   N=          48
 -3.57251062E-33  7.75053151E-33  1.25759564E+00 -3.57251062E-33  7.75053151E-33
  1.25759564E+00 -3.57251062E-33  7.75053151E-33  1.25759564E+00 -3.57251062E-33
  7.75053151E-33  1.25759564E+00  1.54005961E-16  1.62125376E-32 -1.25759564E+00
  1.54005961E-16  1.62125376E-32 -1.25759564E+00  1.54005961E-16  1.62125376E-32
 -1.25759564E+00  1.54005961E-16  1.62125376E-32 -1.25759564E+00  3.13381662E-49
  1.74547051E+00 -2.34228093E+00  3.13381662E-49  1.74547051E+00 -2.34228093E+00
 -2.13751428E-16 -1.74547051E+00 -2.34228093E+00 -2.13751428E-16 -1.74547051E+00
 -2.34228093E+00 -2.13751428E-16 -1.74547051E+00  2.34228093E+00 -2.13751428E-16
 -1.74547051E+00  2.34228093E+00 -2.86837211E-16  1.74547051E+00  2.34228093E+00
 -2.86837211E-16  1.74547051E+00  2.34228093E+00
Alpha Orbital Energies                     R   N=          38
 -1.01842747E+01 -1.01833822E+01 -7.54737178E-01 -5.77318753E-01 -4.64687110E-01
 -4.16370252E-01 -3.53230224E-01 -2.66619786E-01  1.87804828E-02  1.22347109E-01
  1.40257286E-01  1.57566113E-01  2.44050783E-01  3.32334542E-01  4.80349111E-01
  5.48470745E-01  5.68596281E-01  6.37271240E-01  6.55207118E-01  6.99019631E-01
  8.47501995E-01  8.72188983E-01  9.31676494E-01  9.41067387E-01  1.10571982E+00
  1.21591420E+00  1.46273236E+00  1.54518940E+00  1.83286775E+00  1.89031307E+00
  1.98785562E+00  2.08824785E+00  2.28549331E+00  2.38620801E+00  2.70125453E+00
  2.70528064E+00  4.09686569E+00  4.24634952E+00
Alpha MO coefficients                      R   N=        1444
  7.01781382E-01  3.43944548E-02  0.00000000E+00  0.00000000E+00  2.99455376E-04
 -6.02621601E-03  0.00000000E+00  0.00000000E+00 -7.15290866E-04 -7.00754674E-03
 -6.83246574E-03 -6.69219313E-03  0.00000000E+00  0.00000000E+00  0.00000000E+00
  7.01781382E-01  3.43944548E-02  0.00000000E+00  0.00000000E+00 -2.99455376E-04
 -6.02621601E-03  0.00000000E+00  0.00000000E+00  7.15290866E-04 -7.00754674E-03
 -6.83246574E-03 -6.69219313E-03  0.00000000E+00  0.00000000E+00  0.00000000E+00
 -2.92594277E-04  1.56153588E-03 -2.92594277E-04  1.56153588E-03 -2.92594277E-04
  1.56153588E-03 -2.92594277E-04  1.56153588E-03  7.02131863E-01  3.51857528E-02
  0.00000000E+00  0.00000000E+00 -3.13070937E-04 -1.24297773E-02  0.00000000E+00
  0.00000000E+00  2.02328031E-03 -6.82286477E-03 -6.55452306E-03 -6.27921829E-03
  0.00000000E+00  0.00000000E+00  0.00000000E+00 -7.02131863E-01 -3.51857528E-02
  0.00000000E+00  0.00000000E+00 -3.13070937E-04  1.24297773E-02  0.00000000E+00
  0.00000000E+00  2.02328031E-03  6.82286477E-03  6.55452306E-03  6.27921829E-03
  0.00000000E+00  0.00000000E+00  0.00000000E+00  1.84764449E-04 -1.54599827E-03
  1.84764449E-04 -1.54599827E-03 -1.84764449E-04  1.54599827E-03 -1.84764449E-04
  1.54599827E-03 -1.60400583E-01  3.10061185E-01  0.00000000E+00  0.00000000E+00
 -1.00101377E-01  2.32800927E-01  0.00000000E+00  0.00000000E+00 -4.34641830E-03
 -1.67266833E-02 -1.29670900E-04  7.98546046E-03  0.00000000E+00  0.00000000E+00
  0.00000000E+00 -1.60400583E-01  3.10061185E-01  0.00000000E+00  0.00000000E+00
  1.00101377E-01  2.32800927E-01  0.00000000E+00  0.00000000E+00  4.34641830E-03
 -1.67266833E-02 -1.29670900E-04  7.98546046E-03  0.00000000E+00  0.00000000E+00
  0.00000000E+00  8.43600104E-02  1.78458819E-02  8.43600104E-02  1.78458819E-02
  8.43600104E-02  1.78458819E-02  8.43600104E-02  1.78458819E-02 -1.23092863E-01
  2.47483624E-01  0.00000000E+00  0.00000000E+00  1.72040825E-01  2.30941453E-01
  0.00000000E+00  0.00000000E+00  6.98293632E-02 -1.13423663E-02  1.34877023E-02
 -8.17078751E-03  0.00000000E+00  0.00000000E+00  0.00000000E+00  1.23092863E-01
 -2.47483624E-01  0.00000000E+00  0.00000000E+00  1.72040825E-01 -2.30941453E-01
  0.00000000E+00  0.00000000E+00  6.98293632E-02  1.13423663E-02 -1.34877023E-02
  8.17078751E-03  0.00000000E+00  0.00000000E+00  0.00000000E+00 -1.45893537E-01
 -6.58762175E-02 -1.45893537E-01 -6.58762175E-02  1.45893537E-01  6.58762175E-02
  1.45893537E-01  6.58762175E-02  0.00000000E+00  0.00000000E+00  0.00000000E+00
  3.31049717E-01  0.00000000E+00  0.00000000E+00  0.00000000E+00  1.21048674E-01
  0.00000000E+00  0.00000000E+00  0.00000000E+00  0.00000000E+00  0.00000000E+00
  0.00000000E+00  6.10453269E-03  0.00000000E+00  0.00000000E+00  0.00000000E+00
  3.31049717E-01  0.00000000E+00  0.00000000E+00  0.00000000E+00  1.21048674E-01
  0.00000000E+00  0.00000000E+00  0.00000000E+00  0.00000000E+00  0.00000000E+00
  0.00000000E+00 -6.10453269E-03  1.55275593E-01  1.11994658E-01 -1.55275593E-01
 -1.11994658E-01 -1.55275593E-01 -1.11994658E-01  1.55275593E-01  1.11994658E-01
  1.46779397E-02 -3.26655563E-02  0.00000000E+00  0.00000000E+00  4.14131771E-01
 -3.25081719E-03  0.00000000E+00  0.00000000E+00  1.41570250E-01  4.91777937E-04
  1.90507195E-02 -5.44164034E-03  0.00000000E+00  0.00000000E+00  0.00000000E+00
  1.46779397E-02 -3.26655563E-02  0.00000000E+00  0.00000000E+00 -4.14131771E-01
 -3.25081719E-03  0.00000000E+00  0.00000000E+00 -1.41570250E-01  4.91777937E-04
  1.90507195E-02 -5.44164034E-03  0.00000000E+00  0.00000000E+00  0.00000000E+00
  1.24839729E-01  1.08175461E-01  1.24839729E-01  1.08175461E-01  1.24839729E-01
  1.08175461E-01  1.24839729E-01  1.08175461E-01  0.00000000E+00  0.00000000E+00
  0.00000000E+00  3.09515965E-01  0.00000000E+00  0.00000000E+00  0.00000000E+00
  1.16775839E-01  0.00000000E+00  0.00000000E+00  0.00000000E+00  0.00000000E+00
  0.00000000E+00  0.00000000E+00  3.05796202E-02  0.00000000E+00  0.00000000E+00
  0.00000000E+00 -3.09515965E-01  0.00000000E+00  0.00000000E+00  0.00000000E+00
 -1.16775839E-01  0.00000000E+00  0.00000000E+00  0.00000000E+00  0.00000000E+00
  0.00000000E+00  0.00000000E+00  3.05796202E-02 -1.97279023E-01 -1.96938595E-01
  1.97279023E-01  1.96938595E-01 -1.97279023E-01 -1.96938595E-01  1.97279023E-01
  1.96938595E-01  0.00000000E+00  0.00000000E+00  4.01435586E-01  0.00000000E+00
  0.00000000E+00  0.00000000E+00  2.84547767E-01  0.00000000E+00  0.00000000E+00
  0.00000000E+00  0.00000000E+00  0.00000000E+00  0.00000000E+00 -1.61112515E-02
  0.00000000E+00  0.00000000E+00  0.00000000E+00  4.01435586E-01  0.00000000E+00
  0.00000000E+00  0.00000000E+00  2.84547767E-01  0.00000000E+00  0.00000000E+00
  0.00000000E+00  0.00000000E+00  0.00000000E+00  0.00000000E+00  1.61112515E-02
  0.00000000E+00  0.00000000E+00  0.00000000E+00  0.00000000E+00  0.00000000E+00
  0.00000000E+00  0.00000000E+00  0.00000000E+00  0.00000000E+00  0.00000000E+00
  0.00000000E+00  4.18981977E-01  0.00000000E+00  0.00000000E+00  0.00000000E+00
  6.32098613E-01  0.00000000E+00  0.00000000E+00  0.00000000E+00  0.00000000E+00
  0.00000000E+00  0.00000000E+00  2.50599969E-02  0.00000000E+00  0.00000000E+00
  0.00000000E+00 -4.18981977E-01  0.00000000E+00  0.00000000E+00  0.00000000E+00
 -6.32098613E-01  0.00000000E+00  0.00000000E+00  0.00000000E+00  0.00000000E+00
  0.00000000E+00  0.00000000E+00  2.50599969E-02  0.00000000E+00  0.00000000E+00
  0.00000000E+00  0.00000000E+00  0.00000000E+00  0.00000000E+00  0.00000000E+00
  0.00000000E+00  0.00000000E+00 -8.17645965E-02  1.27042752E-01  0.00000000E+00
  0.00000000E+00  1.83370263E-01  1.38059406E+00  0.00000000E+00  0.00000000E+00
  5.91232788E-01 -3.50523967E-03 -1.38860282E-02  4.43463856E-03  0.00000000E+00
  0.00000000E+00  0.00000000E+00 -8.17645965E-02  1.27042752E-01  0.00000000E+00
  0.00000000E+00 -1.83370263E-01  1.38059406E+00  0.00000000E+00  0.00000000E+00
 -5.91232788E-01 -3.50523967E-03 -1.38860282E-02  4.43463856E-03  0.00000000E+00
  0.00000000E+00  0.00000000E+00 -4.04134556E-02 -9.76901747E-01 -4.04134556E-02
 -9.76901747E-01 -4.04134556E-02 -9.76901747E-01 -4.04134556E-02 -9.76901747E-01
  0.00000000E+00  0.00000000E+00  0.00000000E+00 -3.04638619E-01  0.00000000E+00
  0.00000000E+00  0.00000000E+00 -7.09739423E-01  0.00000000E+00  0.00000000E+00
  0.00000000E+00  0.00000000E+00  0.00000000E+00  0.00000000E+00  2.63615028E-02
  0.00000000E+00  0.00000000E+00  0.00000000E+00 -3.04638619E-01  0.00000000E+00
  0.00000000E+00  0.00000000E+00 -7.09739423E-01  0.00000000E+00  0.00000000E+00
  0.00000000E+00  0.00000000E+00  0.00000000E+00  0.00000000E+00 -2.63615028E-02
  7.69840333E-02  9.99257313E-01 -7.69840333E-02 -9.99257313E-01 -7.69840333E-02
 -9.99257313E-01  7.69840333E-02  9.99257313E-01 -1.14290430E-01  1.60838797E-01
  0.00000000E+00  0.00000000E+00  1.16341844E-01  1.82807425E+00  0.00000000E+00
  0.00000000E+00  1.04224144E-01 -9.57981214E-03 -1.84144302E-03 -9.07378068E-03
  0.00000000E+00  0.00000000E+00  0.00000000E+00  1.14290430E-01 -1.60838797E-01
  0.00000000E+00  0.00000000E+00  1.16341844E-01 -1.82807425E+00  0.00000000E+00
  0.00000000E+00  1.04224144E-01  9.57981214E-03  1.84144302E-03  9.07378068E-03
  0.00000000E+00  0.00000000E+00  0.00000000E+00  5.24290389E-02  9.97155485E-01
  5.24290389E-02  9.97155485E-01 -5.24290389E-02 -9.97155485E-01 -5.24290389E-02
 -9.97155485E-01  0.00000000E+00  0.00000000E+00  0.00000000E+00  3.28662212E-01
  0.00000000E+00  0.00000000E+00  0.00000000E+00  1.65608724E+00  0.00000000E+00
  0.00000000E+00  0.00000000E+00  0.00000000E+00  0.00000000E+00  0.00000000E+00
  1.89461528E-02  0.00000000E+00  0.00000000E+00  0.00000000E+00 -3.28662212E-01
  0.00000000E+00  0.00000000E+00  0.00000000E+00 -1.65608724E+00  0.00000000E+00
  0.00000000E+00  0.00000000E+00  0.00000000E+00  0.00000000E+00  0.00000000E+00
  1.89461528E-02 -1.83424283E-02  1.48210876E+00  1.83424283E-02 -1.48210876E+00
 -1.83424283E-02  1.48210876E+00  1.83424283E-02 -1.48210876E+00 -7.12959458E-02
  3.33963389E-02  0.00000000E+00  0.00000000E+00 -1.98801018E-01  2.96733032E+00
  0.00000000E+00  0.00000000E+00 -2.84464046E+00 -1.01448204E-02  2.59240029E-02
 -1.96863572E-02  0.00000000E+00  0.00000000E+00  0.00000000E+00  7.12959458E-02
 -3.33963389E-02  0.00000000E+00  0.00000000E+00 -1.98801018E-01 -2.96733032E+00
  0.00000000E+00  0.00000000E+00 -2.84464046E+00  1.01448204E-02 -2.59240029E-02
  1.96863572E-02  0.00000000E+00  0.00000000E+00  0.00000000E+00 -8.37810523E-02
 -5.51110518E-01 -8.37810523E-02 -5.51110518E-01  8.37810523E-02  5.51110518E-01
  8.37810523E-02  5.51110518E-01  2.03321322E-02  1.90320654E-01  0.00000000E+00
  0.00000000E+00 -5.60894500E-01  2.87411876E-01  0.00000000E+00  0.00000000E+00
  1.06277789E+00 -3.77109891E-03 -3.73192956E-02  7.68710695E-02  0.00000000E+00
  0.00000000E+00  0.00000000E+00  2.03321322E-02  1.90320654E-01  0.00000000E+00
  0.00000000E+00  5.60894500E-01  2.87411876E-01  0.00000000E+00  0.00000000E+00
 -1.06277789E+00 -3.77109891E-03 -3.73192956E-02  7.68710695E-02  0.00000000E+00
  0.00000000E+00  0.00000000E+00 -6.83485492E-02 -1.25851575E-01 -6.83485492E-02
 -1.25851575E-01 -6.83485492E-02 -1.25851575E-01 -6.83485492E-02 -1.25851575E-01
  0.00000000E+00  0.00000000E+00  7.29883371E-01  0.00000000E+00  0.00000000E+00
  0.00000000E+00 -6.50026712E-01  0.00000000E+00  0.00000000E+00  0.00000000E+00
  0.00000000E+00  0.00000000E+00  0.00000000E+00 -5.57280491E-02  0.00000000E+00
  0.00000000E+00  0.00000000E+00  7.29883371E-01  0.00000000E+00  0.00000000E+00
  0.00000000E+00 -6.50026712E-01  0.00000000E+00  0.00000000E+00  0.00000000E+00
  0.00000000E+00  0.00000000E+00  0.00000000E+00  5.57280491E-02  0.00000000E+00
  0.00000000E+00  0.00000000E+00  0.00000000E+00  0.00000000E+00  0.00000000E+00
  0.00000000E+00  0.00000000E+00  0.00000000E+00  0.00000000E+00  0.00000000E+00
  0.00000000E+00 -4.07154563E-01  0.00000000E+00  0.00000000E+00  0.00000000E+00
  7.71652434E-01  0.00000000E+00  0.00000000E+00  0.00000000E+00  0.00000000E+00
  0.00000000E+00  0.00000000E+00 -9.51127995E-02  0.00000000E+00  0.00000000E+00
  0.00000000E+00 -4.07154563E-01  0.00000000E+00  0.00000000E+00  0.00000000E+00
  7.71652434E-01  0.00000000E+00  0.00000000E+00  0.00000000E+00  0.00000000E+00
  0.00000000E+00  0.00000000E+00  9.51127995E-02 -3.84254147E-01 -6.49601973E-02
  3.84254147E-01  6.49601973E-02  3.84254147E-01  6.49601973E-02 -3.84254147E-01
 -6.49601973E-02  0.00000000E+00  0.00000000E+00 -7.84145655E-01  0.00000000E+00
  0.00000000E+00  0.00000000E+00  1.13936596E+00  0.00000000E+00  0.00000000E+00
  0.00000000E+00  0.00000000E+00  0.00000000E+00  0.00000000E+00 -1.98432017E-02
  0.00000000E+00  0.00000000E+00  0.00000000E+00  7.84145655E-01  0.00000000E+00
  0.00000000E+00  0.00000000E+00 -1.13936596E+00  0.00000000E+00  0.00000000E+00
  0.00000000E+00  0.00000000E+00  0.00000000E+00  0.00000000E+00 -1.98432017E-02
  0.00000000E+00  0.00000000E+00  0.00000000E+00  0.00000000E+00  0.00000000E+00
  0.00000000E+00  0.00000000E+00  0.00000000E+00  0.00000000E+00 -3.79035756E-02
 -7.08885943E-01  0.00000000E+00  0.00000000E+00  3.28159471E-02  1.35076908E+00
  0.00000000E+00  0.00000000E+00  3.37788454E-01  5.80957270E-02 -1.49071364E-01
 -7.72553174E-02  0.00000000E+00  0.00000000E+00  0.00000000E+00 -3.79035756E-02
 -7.08885943E-01  0.00000000E+00  0.00000000E+00 -3.28159471E-02  1.35076908E+00
  0.00000000E+00  0.00000000E+00 -3.37788454E-01  5.80957270E-02 -1.49071364E-01
 -7.72553174E-02  0.00000000E+00  0.00000000E+00  0.00000000E+00 -4.27658719E-01
 -1.59963266E-01 -4.27658719E-01 -1.59963266E-01 -4.27658719E-01 -1.59963266E-01
 -4.27658719E-01 -1.59963266E-01 -8.79611202E-02  3.55304491E-02  0.00000000E+00
  0.00000000E+00 -6.36672500E-01  4.19545759E-01  0.00000000E+00  0.00000000E+00
  7.35973832E-01  8.91410952E-02 -4.29578387E-02 -1.62426545E-01  0.00000000E+00
  0.00000000E+00  0.00000000E+00  8.79611202E-02 -3.55304491E-02  0.00000000E+00
  0.00000000E+00 -6.36672500E-01 -4.19545759E-01  0.00000000E+00  0.00000000E+00
  7.35973832E-01 -8.91410952E-02  4.29578387E-02  1.62426545E-01  0.00000000E+00
  0.00000000E+00  0.00000000E+00  3.62933646E-01  1.01227676E-01  3.62933646E-01
  1.01227676E-01 -3.62933646E-01 -1.01227676E-01 -3.62933646E-01 -1.01227676E-01
  0.00000000E+00  0.00000000E+00  0.00000000E+00 -6.64429085E-01  0.00000000E+00
  0.00000000E+00  0.00000000E+00  1.13889654E+00  0.00000000E+00  0.00000000E+00
  0.00000000E+00  0.00000000E+00  0.00000000E+00  0.00000000E+00  1.68198557E-01
  0.00000000E+00  0.00000000E+00  0.00000000E+00 -6.64429085E-01  0.00000000E+00
  0.00000000E+00  0.00000000E+00  1.13889654E+00  0.00000000E+00  0.00000000E+00
  0.00000000E+00  0.00000000E+00  0.00000000E+00  0.00000000E+00 -1.68198557E-01
  3.94132367E-01 -1.12900369E+00 -3.94132367E-01  1.12900369E+00 -3.94132367E-01
  1.12900369E+00  3.94132367E-01 -1.12900369E+00  0.00000000E+00  0.00000000E+00
  0.00000000E+00 -8.82414528E-01  0.00000000E+00  0.00000000E+00  0.00000000E+00
  2.67948923E+00  0.00000000E+00  0.00000000E+00  0.00000000E+00  0.00000000E+00
  0.00000000E+00  0.00000000E+00  1.33718730E-02  0.00000000E+00  0.00000000E+00
  0.00000000E+00  8.82414528E-01  0.00000000E+00  0.00000000E+00  0.00000000E+00
 -2.67948923E+00  0.00000000E+00  0.00000000E+00  0.00000000E+00  0.00000000E+00
  0.00000000E+00  0.00000000E+00  1.33718730E-02 -2.51896994E-01  1.50191317E+00
  2.51896994E-01 -1.50191317E+00 -2.51896994E-01  1.50191317E+00  2.51896994E-01
 -1.50191317E+00  2.43397694E-02 -3.73668900E-01  0.00000000E+00  0.00000000E+00
 -6.12250519E-01  1.68643246E-01  0.00000000E+00  0.00000000E+00  1.43022073E+00
 -8.09394603E-02  1.13769409E-01 -1.07553259E-01  0.00000000E+00  0.00000000E+00
  0.00000000E+00 -2.43397694E-02  3.73668900E-01  0.00000000E+00  0.00000000E+00
 -6.12250519E-01 -1.68643246E-01  0.00000000E+00  0.00000000E+00  1.43022073E+00
  8.09394603E-02 -1.13769409E-01  1.07553259E-01  0.00000000E+00  0.00000000E+00
  0.00000000E+00 -4.89819265E-01  1.02539579E+00 -4.89819265E-01  1.02539579E+00
  4.89819265E-01 -1.02539579E+00  4.89819265E-01 -1.02539579E+00  1.54647621E-02
 -1.01552110E+00  0.00000000E+00  0.00000000E+00 -3.33246082E-01  1.90398287E+00
  0.00000000E+00  0.00000000E+00  5.12208003E-01 -8.17409283E-02  4.61613999E-02
 -1.02385037E-01  0.00000000E+00  0.00000000E+00  0.00000000E+00  1.54647621E-02
 -1.01552110E+00  0.00000000E+00  0.00000000E+00  3.33246082E-01  1.90398287E+00
  0.00000000E+00  0.00000000E+00 -5.12208003E-01 -8.17409283E-02  4.61613999E-02
 -1.02385037E-01  0.00000000E+00  0.00000000E+00  0.00000000E+00  4.23469917E-01
 -9.33839425E-01  4.23469917E-01 -9.33839425E-01  4.23469917E-01 -9.33839425E-01
  4.23469917E-01 -9.33839425E-01 -3.22037368E-02 -1.53515041E+00  0.00000000E+00
  0.00000000E+00  2.15186900E-01  5.64315131E+00  0.00000000E+00  0.00000000E+00
 -1.88981658E+00 -3.22575026E-02 -1.79955810E-01  2.09941908E-02  0.00000000E+00
  0.00000000E+00  0.00000000E+00  3.22037368E-02  1.53515041E+00  0.00000000E+00
  0.00000000E+00  2.15186900E-01 -5.64315131E+00  0.00000000E+00  0.00000000E+00
 -1.88981658E+00  3.22575026E-02  1.79955810E-01 -2.09941908E-02  0.00000000E+00
  0.00000000E+00  0.00000000E+00  1.06908614E-01  4.03325875E-01  1.06908614E-01
  4.03325875E-01 -1.06908614E-01 -4.03325875E-01 -1.06908614E-01 -4.03325875E-01
  0.00000000E+00  0.00000000E+00  0.00000000E+00 -1.63691485E-01  0.00000000E+00
  0.00000000E+00  0.00000000E+00  2.90357990E+00  0.00000000E+00  0.00000000E+00
  0.00000000E+00  0.00000000E+00  0.00000000E+00  0.00000000E+00 -1.62042424E-01
  0.00000000E+00  0.00000000E+00  0.00000000E+00  1.63691485E-01  0.00000000E+00
  0.00000000E+00  0.00000000E+00 -2.90357990E+00  0.00000000E+00  0.00000000E+00
  0.00000000E+00  0.00000000E+00  0.00000000E+00  0.00000000E+00 -1.62042424E-01
  6.68778168E-01  8.35157521E-01 -6.68778168E-01 -8.35157521E-01  6.68778168E-01
  8.35157521E-01 -6.68778168E-01 -8.35157521E-01  0.00000000E+00  0.00000000E+00
  1.71437725E-01  0.00000000E+00  0.00000000E+00  0.00000000E+00 -3.60765567E-02
  0.00000000E+00  0.00000000E+00  0.00000000E+00  0.00000000E+00  0.00000000E+00
  0.00000000E+00  6.19772990E-01  0.00000000E+00  0.00000000E+00  0.00000000E+00
  1.71437725E-01  0.00000000E+00  0.00000000E+00  0.00000000E+00 -3.60765567E-02
  0.00000000E+00  0.00000000E+00  0.00000000E+00  0.00000000E+00  0.00000000E+00
  0.00000000E+00 -6.19772990E-01  0.00000000E+00  0.00000000E+00  0.00000000E+00
  0.00000000E+00  0.00000000E+00  0.00000000E+00  0.00000000E+00  0.00000000E+00
  0.00000000E+00  0.00000000E+00  0.00000000E+00  0.00000000E+00  0.00000000E+00
  0.00000000E+00  0.00000000E+00  0.00000000E+00  0.00000000E+00  0.00000000E+00
  0.00000000E+00  0.00000000E+00  0.00000000E+00  6.80533173E-01  0.00000000E+00
  0.00000000E+00  0.00000000E+00  0.00000000E+00  0.00000000E+00  0.00000000E+00
  0.00000000E+00  0.00000000E+00  0.00000000E+00  0.00000000E+00  0.00000000E+00
  0.00000000E+00  0.00000000E+00  0.00000000E+00  6.80533173E-01  0.00000000E+00
  0.00000000E+00  0.00000000E+00  0.00000000E+00  0.00000000E+00  0.00000000E+00
  0.00000000E+00  0.00000000E+00  0.00000000E+00  0.00000000E+00  0.00000000E+00
  0.00000000E+00  0.00000000E+00  0.00000000E+00  0.00000000E+00  0.00000000E+00
  0.00000000E+00  0.00000000E+00  0.00000000E+00  0.00000000E+00  0.00000000E+00
  0.00000000E+00  7.37058059E-01  0.00000000E+00  0.00000000E+00  0.00000000E+00
  0.00000000E+00  0.00000000E+00  0.00000000E+00  0.00000000E+00  0.00000000E+00
  0.00000000E+00  0.00000000E+00  0.00000000E+00  0.00000000E+00  0.00000000E+00
  0.00000000E+00 -7.37058059E-01  0.00000000E+00  0.00000000E+00  0.00000000E+00
  0.00000000E+00  0.00000000E+00  0.00000000E+00  0.00000000E+00  0.00000000E+00
  0.00000000E+00  0.00000000E+00  3.21211400E-02  1.82469877E-01  0.00000000E+00
  0.00000000E+00 -7.83973347E-02 -6.37612746E-01  0.00000000E+00  0.00000000E+00
 -2.29938422E-01  6.98369912E-01 -5.43221307E-01 -9.26055620E-02  0.00000000E+00
  0.00000000E+00  0.00000000E+00  3.21211400E-02  1.82469877E-01  0.00000000E+00
  0.00000000E+00  7.83973347E-02 -6.37612746E-01  0.00000000E+00  0.00000000E+00
  2.29938422E-01  6.98369912E-01 -5.43221307E-01 -9.26055620E-02  0.00000000E+00
  0.00000000E+00  0.00000000E+00  3.57684739E-01  1.22326158E-01  3.57684739E-01
  1.22326158E-01  3.57684739E-01  1.22326158E-01  3.57684739E-01  1.22326158E-01
  0.00000000E+00  0.00000000E+00  0.00000000E+00  2.49054724E-01  0.00000000E+00
  0.00000000E+00  0.00000000E+00  2.15876302E-01  0.00000000E+00  0.00000000E+00
  0.00000000E+00  0.00000000E+00  0.00000000E+00  0.00000000E+00  6.91574790E-01
  0.00000000E+00  0.00000000E+00  0.00000000E+00  2.49054724E-01  0.00000000E+00
  0.00000000E+00  0.00000000E+00  2.15876302E-01  0.00000000E+00  0.00000000E+00
  0.00000000E+00  0.00000000E+00  0.00000000E+00  0.00000000E+00 -6.91574790E-01
 -4.99115134E-01  8.18772658E-02  4.99115134E-01 -8.18772658E-02  4.99115134E-01
 -8.18772658E-02 -4.99115134E-01  8.18772658E-02 -2.77658552E-02 -3.68270398E-01
  0.00000000E+00  0.00000000E+00  2.80753878E-01  2.29890654E-01  0.00000000E+00
  0.00000000E+00 -4.44957861E-01 -3.13199307E-01 -5.47689301E-01  6.18700167E-01
  0.00000000E+00  0.00000000E+00  0.00000000E+00 -2.77658552E-02 -3.68270398E-01
  0.00000000E+00  0.00000000E+00 -2.80753878E-01  2.29890654E-01  0.00000000E+00
  0.00000000E+00  4.44957861E-01 -3.13199307E-01 -5.47689301E-01  6.18700167E-01
  0.00000000E+00  0.00000000E+00  0.00000000E+00  1.48844958E-01 -4.99520769E-02
  1.48844958E-01 -4.99520769E-02  1.48844958E-01 -4.99520769E-02  1.48844958E-01
 -4.99520769E-02 -4.21771604E-02 -2.94800347E-01  0.00000000E+00  0.00000000E+00
  1.02854943E-01  1.37428769E+00  0.00000000E+00  0.00000000E+00 -2.54238655E-01
 -6.96119283E-01  6.84321396E-01 -4.62573368E-02  0.00000000E+00  0.00000000E+00
  0.00000000E+00  4.21771604E-02  2.94800347E-01  0.00000000E+00  0.00000000E+00
  1.02854943E-01 -1.37428769E+00  0.00000000E+00  0.00000000E+00 -2.54238655E-01
  6.96119283E-01 -6.84321396E-01  4.62573368E-02  0.00000000E+00  0.00000000E+00
  0.00000000E+00  4.27502249E-01  1.94392815E-02  4.27502249E-01  1.94392815E-02
 -4.27502249E-01 -1.94392815E-02 -4.27502249E-01 -1.94392815E-02  0.00000000E+00
  0.00000000E+00 -1.20928123E-01  0.00000000E+00  0.00000000E+00  0.00000000E+00
 -2.77973458E-01  0.00000000E+00  0.00000000E+00  0.00000000E+00  0.00000000E+00
  0.00000000E+00  0.00000000E+00  9.07593571E-01  0.00000000E+00  0.00000000E+00
  0.00000000E+00  1.20928123E-01  0.00000000E+00  0.00000000E+00  0.00000000E+00
  2.77973458E-01  0.00000000E+00  0.00000000E+00  0.00000000E+00  0.00000000E+00
  0.00000000E+00  0.00000000E+00  9.07593571E-01  0.00000000E+00  0.00000000E+00
  0.00000000E+00  0.00000000E+00  0.00000000E+00  0.00000000E+00  0.00000000E+00
  0.00000000E+00  0.00000000E+00  0.00000000E+00  0.00000000E+00  0.00000000E+00
 -8.15086786E-02  0.00000000E+00  0.00000000E+00  0.00000000E+00  5.29409531E-01
  0.00000000E+00  0.00000000E+00  0.00000000E+00  0.00000000E+00  0.00000000E+00
  0.00000000E+00  9.71736110E-01  0.00000000E+00  0.00000000E+00  0.00000000E+00
  8.15086786E-02  0.00000000E+00  0.00000000E+00  0.00000000E+00 -5.29409531E-01
  0.00000000E+00  0.00000000E+00  0.00000000E+00  0.00000000E+00  0.00000000E+00