 Entering Gaussian System, Link 0=g03
 Initial command:
 /opt/gaussian/g03_D1_amd64/g03/l1.exe /home/toon/unief/research/code/work/tamkin/examples/009_ethyl_ethene/trans/scan/Gau-15684.inp -scrdir=/home/toon/unief/research/code/work/tamkin/examples/009_ethyl_ethene/trans/scan/
 Entering Link 1 = /opt/gaussian/g03_D1_amd64/g03/l1.exe PID=     15686.
  
 Copyright (c) 1988,1990,1992,1993,1995,1998,2003,2004, Gaussian, Inc.
                  All Rights Reserved.
  
 This is the Gaussian(R) 03 program.  It is based on the
 the Gaussian(R) 98 system (copyright 1998, Gaussian, Inc.),
 the Gaussian(R) 94 system (copyright 1995, Gaussian, Inc.),
 the Gaussian 92(TM) system (copyright 1992, Gaussian, Inc.),
 the Gaussian 90(TM) system (copyright 1990, Gaussian, Inc.),
 the Gaussian 88(TM) system (copyright 1988, Gaussian, Inc.),
 the Gaussian 86(TM) system (copyright 1986, Carnegie Mellon
 University), and the Gaussian 82(TM) system (copyright 1983,
 Carnegie Mellon University). Gaussian is a federally registered
 trademark of Gaussian, Inc.
  
 This software contains proprietary and confidential information,
 including trade secrets, belonging to Gaussian, Inc.
  
 This software is provided under written license and may be
 used, copied, transmitted, or stored only in accord with that
 written license.
  
 The following legend is applicable only to US Government
 contracts under FAR:
  
                    RESTRICTED RIGHTS LEGEND
  
 Use, reproduction and disclosure by the US Government is
 subject to restrictions as set forth in subparagraphs (a)
 and (c) of the Commercial Computer Software - Restricted
 Rights clause in FAR 52.227-19.
  
 Gaussian, Inc.
 340 Quinnipiac St., Bldg. 40, Wallingford CT 06492
  
  
 ---------------------------------------------------------------
 Warning -- This program may not be used in any manner that
 competes with the business of Gaussian, Inc. or will provide
 assistance to any competitor of Gaussian, Inc.  The licensee
 of this program is prohibited from giving any competitor of
 Gaussian, Inc. access to this program.  By using this program,
 the user acknowledges that Gaussian, Inc. is engaged in the
 business of creating and licensing software in the field of
 computational chemistry and represents and warrants to the
 licensee that it is not a competitor of Gaussian, Inc. and that
 it will not use this program in any manner prohibited above.
 ---------------------------------------------------------------
  

 Cite this work as:
 Gaussian 03, Revision D.01,
 M. J. Frisch, G. W. Trucks, H. B. Schlegel, G. E. Scuseria, 
 M. A. Robb, J. R. Cheeseman, J. A. Montgomery, Jr., T. Vreven, 
 K. N. Kudin, J. C. Burant, J. M. Millam, S. S. Iyengar, J. Tomasi, 
 V. Barone, B. Mennucci, M. Cossi, G. Scalmani, N. Rega, 
 G. A. Petersson, H. Nakatsuji, M. Hada, M. Ehara, K. Toyota, 
 R. Fukuda, J. Hasegawa, M. Ishida, T. Nakajima, Y. Honda, O. Kitao, 
 H. Nakai, M. Klene, X. Li, J. E. Knox, H. P. Hratchian, J. B. Cross, 
 V. Bakken, C. Adamo, J. Jaramillo, R. Gomperts, R. E. Stratmann, 
 O. Yazyev, A. J. Austin, R. Cammi, C. Pomelli, J. W. Ochterski, 
 P. Y. Ayala, K. Morokuma, G. A. Voth, P. Salvador, J. J. Dannenberg, 
 V. G. Zakrzewski, S. Dapprich, A. D. Daniels, M. C. Strain, 
 O. Farkas, D. K. Malick, A. D. Rabuck, K. Raghavachari, 
 J. B. Foresman, J. V. Ortiz, Q. Cui, A. G. Baboul, S. Clifford, 
 J. Cioslowski, B. B. Stefanov, G. Liu, A. Liashenko, P. Piskorz, 
 I. Komaromi, R. L. Martin, D. J. Fox, T. Keith, M. A. Al-Laham, 
 C. Y. Peng, A. Nanayakkara, M. Challacombe, P. M. W. Gill, 
 B. Johnson, W. Chen, M. W. Wong, C. Gonzalez, and J. A. Pople, 
 Gaussian, Inc., Wallingford CT, 2004.
 
 ******************************************
 Gaussian 03:  AM64L-G03RevD.01 13-Oct-2005
                16-Nov-2009 
 ******************************************
 %chk=gaussian.chk
 %mem=1GB
 %nproc=1
 Will use up to    1 processors via shared memory.
 --------------------------------------------------------------
 #p B3LYP/6-31g(d) opt(modredundant,ts,noeigentest) maxdisk=5GB
 --------------------------------------------------------------
 1/5=1,11=1,14=-1,18=120,26=3,38=1/1,3;
 2/9=110,17=6,18=5,40=1/2;
 3/5=1,6=6,7=1,11=2,16=1,25=1,30=1,74=-5/1,2,3;
 4//1;
 5/5=2,38=5/2;
 6/7=2,8=2,9=2,10=2,28=1/1;
 7//1,2,3,16;
 1/5=1,11=1,14=-1,18=20/3(3);
 2/9=110/2;
 6/7=2,8=2,9=2,10=2,19=2,28=1/1;
 99//99;
 2/9=110/2;
 3/5=1,6=6,7=1,11=2,16=1,25=1,30=1,74=-5/1,2,3;
 4/5=5,16=3/1;
 5/5=2,38=5/2;
 7//1,2,3,16;
 1/5=1,11=1,14=-1,18=20/3(-5);
 2/9=110/2;
 6/7=2,8=2,9=2,10=2,19=2,28=1/1;
 99/9=1/99;
 Leave Link    1 at Mon Nov 16 11:09:17 2009, MaxMem=  134217728 cpu:       0.1
 (Enter /opt/gaussian/g03_D1_amd64/g03/l101.exe)
 --------
 no title
 --------
 Symbolic Z-matrix:
 Charge =  0 Multiplicity = 2
 C                     2.15482  -0.29703   0.01116 
 C                     1.03418   0.69073   0.11894 
 C                    -0.91728  -0.57006  -0.11216 
 C                    -2.02301   0.21446  -0.03189 
 H                     3.14047   0.19005   0.10627 
 H                     2.15174  -0.81325  -0.95689 
 H                     2.10382  -1.05916   0.79866 
 H                     0.81899   1.11643   1.09587 
 H                     0.86911   1.37077  -0.71305 
 H                    -0.58897  -1.15404   0.74339 
 H                    -0.5392   -0.89751  -1.07685 
 H                    -2.49093   0.44547   0.92147 
 H                    -2.44078   0.70315  -0.90817 
 
 The following ModRedundant input section has been read:
 D    1    2    3    4 S  72 5.0000                                            
                    Isotopes and Nuclear Properties:
 (Nuclear quadrupole moments (NQMom) in fm**2, nuclear magnetic moments (NMagM)
  in nuclear magnetons)

  Atom         1           2           3           4           5           6           7           8           9          10
 IAtWgt=          12          12          12          12           1           1           1           1           1           1
 AtmWgt=  12.0000000  12.0000000  12.0000000  12.0000000   1.0078250   1.0078250   1.0078250   1.0078250   1.0078250   1.0078250
 NucSpn=           0           0           0           0           1           1           1           1           1           1
 AtZEff=   0.0000000   0.0000000   0.0000000   0.0000000   0.0000000   0.0000000   0.0000000   0.0000000   0.0000000   0.0000000
 NQMom=    0.0000000   0.0000000   0.0000000   0.0000000   0.0000000   0.0000000   0.0000000   0.0000000   0.0000000   0.0000000
 NMagM=    0.0000000   0.0000000   0.0000000   0.0000000   2.7928460   2.7928460   2.7928460   2.7928460   2.7928460   2.7928460

  Atom        11          12          13
 IAtWgt=           1           1           1
 AtmWgt=   1.0078250   1.0078250   1.0078250
 NucSpn=           1           1           1
 AtZEff=   0.0000000   0.0000000   0.0000000
 NQMom=    0.0000000   0.0000000   0.0000000
 NMagM=    2.7928460   2.7928460   2.7928460
 Leave Link  101 at Mon Nov 16 11:09:18 2009, MaxMem=  134217728 cpu:       0.0
 (Enter /opt/gaussian/g03_D1_amd64/g03/l103.exe)

 GradGradGradGradGradGradGradGradGradGradGradGradGradGradGradGradGradGrad
 Berny optimization.
 Initialization pass.
                           ----------------------------
                           !    Initial Parameters    !
                           ! (Angstroms and Degrees)  !
 --------------------------                            --------------------------
 ! Name  Definition              Value          Derivative Info.                !
 --------------------------------------------------------------------------------
 ! R1    R(1,2)                  1.4977         estimate D2E/DX2                !
 ! R2    R(1,5)                  1.1035         estimate D2E/DX2                !
 ! R3    R(1,6)                  1.0971         estimate D2E/DX2                !
 ! R4    R(1,7)                  1.0971         estimate D2E/DX2                !
 ! R5    R(1,10)                 2.9663         estimate D2E/DX2                !
 ! R6    R(1,11)                 2.9668         estimate D2E/DX2                !
 ! R7    R(2,3)                  2.3348         estimate D2E/DX2                !
 ! R8    R(2,8)                  1.0872         estimate D2E/DX2                !
 ! R9    R(2,9)                  1.0872         estimate D2E/DX2                !
 ! R10   R(2,10)                 2.5353         estimate D2E/DX2                !
 ! R11   R(2,11)                 2.5353         estimate D2E/DX2                !
 ! R12   R(3,4)                  1.3581         estimate D2E/DX2                !
 ! R13   R(3,8)                  2.7052         estimate D2E/DX2                !
 ! R14   R(3,9)                  2.7054         estimate D2E/DX2                !
 ! R15   R(3,10)                 1.0866         estimate D2E/DX2                !
 ! R16   R(3,11)                 1.0866         estimate D2E/DX2                !
 ! R17   R(4,12)                 1.0868         estimate D2E/DX2                !
 ! R18   R(4,13)                 1.0868         estimate D2E/DX2                !
 ! A1    A(2,1,5)              111.7778         estimate D2E/DX2                !
 ! A2    A(2,1,6)              111.8222         estimate D2E/DX2                !
 ! A3    A(2,1,7)              111.8214         estimate D2E/DX2                !
 ! A4    A(5,1,6)              106.6328         estimate D2E/DX2                !
 ! A5    A(5,1,7)              106.6353         estimate D2E/DX2                !
 ! A6    A(5,1,10)             158.8148         estimate D2E/DX2                !
 ! A7    A(5,1,11)             158.7457         estimate D2E/DX2                !
 ! A8    A(6,1,7)              107.8407         estimate D2E/DX2                !
 ! A9    A(6,1,10)              94.5466         estimate D2E/DX2                !
 ! A10   A(6,1,11)              65.0786         estimate D2E/DX2                !
 ! A11   A(7,1,10)              65.109          estimate D2E/DX2                !
 ! A12   A(7,1,11)              94.6129         estimate D2E/DX2                !
 ! A13   A(10,1,11)             36.1109         estimate D2E/DX2                !
 ! A14   A(1,2,3)              105.1964         estimate D2E/DX2                !
 ! A15   A(1,2,8)              118.1006         estimate D2E/DX2                !
 ! A16   A(1,2,9)              118.104          estimate D2E/DX2                !
 ! A17   A(8,2,9)              114.375          estimate D2E/DX2                !
 ! A18   A(8,2,10)              86.3805         estimate D2E/DX2                !
 ! A19   A(8,2,11)             123.1127         estimate D2E/DX2                !
 ! A20   A(9,2,10)             123.1226         estimate D2E/DX2                !
 ! A21   A(9,2,11)              86.3692         estimate D2E/DX2                !
 ! A22   A(10,2,11)             42.5269         estimate D2E/DX2                !
 ! A23   A(2,3,4)              111.2661         estimate D2E/DX2                !
 ! A24   A(4,3,8)               97.818          estimate D2E/DX2                !
 ! A25   A(4,3,9)               97.8348         estimate D2E/DX2                !
 ! A26   A(4,3,10)             120.6562         estimate D2E/DX2                !
 ! A27   A(4,3,11)             120.651          estimate D2E/DX2                !
 ! A28   A(8,3,9)               39.479          estimate D2E/DX2                !
 ! A29   A(8,3,10)              77.85           estimate D2E/DX2                !
 ! A30   A(8,3,11)             111.1608         estimate D2E/DX2                !
 ! A31   A(9,3,10)             111.156          estimate D2E/DX2                !
 ! A32   A(9,3,11)              77.8338         estimate D2E/DX2                !
 ! A33   A(10,3,11)            115.5885         estimate D2E/DX2                !
 ! A34   A(3,4,12)             121.6779         estimate D2E/DX2                !
 ! A35   A(3,4,13)             121.6702         estimate D2E/DX2                !
 ! A36   A(12,4,13)            116.4991         estimate D2E/DX2                !
 ! A37   A(1,10,3)              85.9778         estimate D2E/DX2                !
 ! A38   A(1,11,3)              85.9505         estimate D2E/DX2                !
 ! D1    D(5,1,2,3)            179.9676         estimate D2E/DX2                !
 ! D2    D(5,1,2,8)            -72.3602         estimate D2E/DX2                !
 ! D3    D(5,1,2,9)             72.2818         estimate D2E/DX2                !
 ! D4    D(6,1,2,3)             60.4951         estimate D2E/DX2                !
 ! D5    D(6,1,2,8)            168.1674         estimate D2E/DX2                !
 ! D6    D(6,1,2,9)            -47.1907         estimate D2E/DX2                !
 ! D7    D(7,1,2,3)            -60.5573         estimate D2E/DX2                !
 ! D8    D(7,1,2,8)             47.1149         estimate D2E/DX2                !
 ! D9    D(7,1,2,9)           -168.2431         estimate D2E/DX2                !
 ! D10   D(5,1,10,3)           117.403          estimate D2E/DX2                !
 ! D11   D(6,1,10,3)           -63.9215         estimate D2E/DX2                !
 ! D12   D(7,1,10,3)          -171.4941         estimate D2E/DX2                !
 ! D13   D(11,1,10,3)          -29.6367         estimate D2E/DX2                !
 ! D14   D(5,1,11,3)          -117.5175         estimate D2E/DX2                !
 ! D15   D(6,1,11,3)           171.3802         estimate D2E/DX2                !
 ! D16   D(7,1,11,3)            63.8363         estimate D2E/DX2                !
 ! D17   D(10,1,11,3)           29.6373         estimate D2E/DX2                !
 ! D18   D(1,2,3,4)            179.9718         Scan                            !
 ! D19   D(2,3,4,12)           -87.6716         estimate D2E/DX2                !
 ! D20   D(2,3,4,13)            87.6772         estimate D2E/DX2                !
 ! D21   D(8,3,4,12)           -67.7437         estimate D2E/DX2                !
 ! D22   D(8,3,4,13)           107.6051         estimate D2E/DX2                !
 ! D23   D(9,3,4,12)          -107.6096         estimate D2E/DX2                !
 ! D24   D(9,3,4,13)            67.7392         estimate D2E/DX2                !
 ! D25   D(10,3,4,12)           12.7255         estimate D2E/DX2                !
 ! D26   D(10,3,4,13)         -171.9257         estimate D2E/DX2                !
 ! D27   D(11,3,4,12)          171.9306         estimate D2E/DX2                !
 ! D28   D(11,3,4,13)          -12.7205         estimate D2E/DX2                !
 ! D29   D(4,3,10,1)          -137.8832         estimate D2E/DX2                !
 ! D30   D(8,3,10,1)           -45.9267         estimate D2E/DX2                !
 ! D31   D(9,3,10,1)           -24.3491         estimate D2E/DX2                !
 ! D32   D(11,3,10,1)           61.9106         estimate D2E/DX2                !
 ! D33   D(4,3,11,1)           137.8975         estimate D2E/DX2                !
 ! D34   D(8,3,11,1)            24.3856         estimate D2E/DX2                !
 ! D35   D(9,3,11,1)            45.9297         estimate D2E/DX2                !
 ! D36   D(10,3,11,1)          -61.8952         estimate D2E/DX2                !
 --------------------------------------------------------------------------------
 Trust Radius=3.00D-01 FncErr=1.00D-07 GrdErr=1.00D-06
 Number of optimizations in scan=  73
 Number of steps in this run= 100 maximum allowed number of steps= 100.
 Search for a saddle point of order  1.
 GradGradGradGradGradGradGradGradGradGradGradGradGradGradGradGradGradGrad

 Leave Link  103 at Mon Nov 16 11:09:19 2009, MaxMem=  134217728 cpu:       0.0
 (Enter /opt/gaussian/g03_D1_amd64/g03/l202.exe)
                          Input orientation:                          
 ---------------------------------------------------------------------
 Center     Atomic     Atomic              Coordinates (Angstroms)
 Number     Number      Type              X           Y           Z
 ---------------------------------------------------------------------
    1          6             0        2.154821   -0.297029    0.011161
    2          6             0        1.034181    0.690732    0.118944
    3          6             0       -0.917282   -0.570062   -0.112158
    4          6             0       -2.023013    0.214464   -0.031886
    5          1             0        3.140473    0.190050    0.106265
    6          1             0        2.151741   -0.813254   -0.956888
    7          1             0        2.103820   -1.059159    0.798662
    8          1             0        0.818990    1.116434    1.095873
    9          1             0        0.869112    1.370770   -0.713051
   10          1             0       -0.588967   -1.154035    0.743387
   11          1             0       -0.539199   -0.897511   -1.076853
   12          1             0       -2.490934    0.445468    0.921470
   13          1             0       -2.440785    0.703146   -0.908165
 ---------------------------------------------------------------------
 SCF Done:  E(UB+HF-LYP) =  -157.737109450     A.U. after   19 cycles
                          Input orientation:                          
 ---------------------------------------------------------------------
 Center     Atomic     Atomic              Coordinates (Angstroms)
 Number     Number      Type              X           Y           Z
 ---------------------------------------------------------------------
    1          6             0        2.128198   -0.296318    0.010535
    2          6             0        1.028757    0.711461    0.121694
    3          6             0       -0.890658   -0.564433   -0.110611
    4          6             0       -2.007853    0.203947   -0.032942
    5          1             0        3.138447    0.138811    0.099194
    6          1             0        2.113979   -0.814013   -0.956630
    7          1             0        2.066093   -1.059820    0.795906
    8          1             0        0.806451    1.133604    1.098442
    9          1             0        0.856565    1.387973   -0.711577
   10          1             0       -0.552486   -1.136444    0.749198
   11          1             0       -0.502601   -0.879396   -1.075515
   12          1             0       -2.481029    0.428518    0.919357
   13          1             0       -2.430907    0.686125   -0.910289
 ---------------------------------------------------------------------
 SCF Done:  E(UB+HF-LYP) =  -157.736916281     A.U. after   14 cycles
                          Input orientation:                          
 ---------------------------------------------------------------------
 Center     Atomic     Atomic              Coordinates (Angstroms)
 Number     Number      Type              X           Y           Z
 ---------------------------------------------------------------------
    1          6             0        2.098715   -0.297142    0.009599
    2          6             0        1.024216    0.731792    0.124408
    3          6             0       -0.859641   -0.556520   -0.108627
    4          6             0       -1.991061    0.193493   -0.033938
    5          1             0        3.128285    0.092779    0.092629
    6          1             0        2.068826   -0.815314   -0.957612
    7          1             0        2.020830   -1.061215    0.793821
    8          1             0        0.798482    1.150230    1.101485
    9          1             0        0.848609    1.404751   -0.710461
   10          1             0       -0.511409   -1.118621    0.752879
   11          1             0       -0.461540   -0.861663   -1.071849
   12          1             0       -2.470713    0.409954    0.916984
   13          1             0       -2.420641    0.667490   -0.912558
 ---------------------------------------------------------------------
 SCF Done:  E(UB+HF-LYP) =  -157.736479547     A.U. after   19 cycles
                          Input orientation:                          
 ---------------------------------------------------------------------
 Center     Atomic     Atomic              Coordinates (Angstroms)
 Number     Number      Type              X           Y           Z
 ---------------------------------------------------------------------
    1          6             0        2.068726   -0.299095    0.008489
    2          6             0        1.018244    0.750958    0.126917
    3          6             0       -0.825653   -0.545438   -0.106115
    4          6             0       -1.973613    0.183015   -0.034918
    5          1             0        3.114103    0.048408    0.086183
    6          1             0        2.020534   -0.817238   -0.958475
    7          1             0        1.972390   -1.063137    0.791284
    8          1             0        0.792573    1.167126    1.104535
    9          1             0        0.842694    1.421779   -0.709166
   10          1             0       -0.468045   -1.100066    0.755631
   11          1             0       -0.418256   -0.843493   -1.066970
   12          1             0       -2.460380    0.389857    0.914468
   13          1             0       -2.410359    0.647339   -0.915103
 ---------------------------------------------------------------------
 SCF Done:  E(UB+HF-LYP) =  -157.735863276     A.U. after   15 cycles
                          Input orientation:                          
 ---------------------------------------------------------------------
 Center     Atomic     Atomic              Coordinates (Angstroms)
 Number     Number      Type              X           Y           Z
 ---------------------------------------------------------------------
    1          6             0        2.038840   -0.301723    0.007290
    2          6             0        1.008749    0.766640    0.128838
    3          6             0       -0.788690   -0.530694   -0.103005
    4          6             0       -1.955484    0.173249   -0.035778
    5          1             0        3.096752    0.006585    0.080007
    6          1             0        1.971464   -0.819443   -0.959074
    7          1             0        1.923148   -1.065251    0.788364
    8          1             0        0.787189    1.182685    1.107081
    9          1             0        0.837276    1.437379   -0.707725
   10          1             0       -0.423345   -1.080838    0.757602
   11          1             0       -0.373682   -0.824909   -1.061084
   12          1             0       -2.449615    0.369449    0.911973
   13          1             0       -2.399643    0.626886   -0.917728
 ---------------------------------------------------------------------
 SCF Done:  E(UB+HF-LYP) =  -157.735144870     A.U. after   15 cycles
                          Input orientation:                          
 ---------------------------------------------------------------------
 Center     Atomic     Atomic              Coordinates (Angstroms)
 Number     Number      Type              X           Y           Z
 ---------------------------------------------------------------------
    1          6             0        2.010566   -0.304923    0.006060
    2          6             0        0.992408    0.774839    0.129521
    3          6             0       -0.749053   -0.511600   -0.099208
    4          6             0       -1.936661    0.166225   -0.036232
    5          1             0        3.077015   -0.027992    0.074785
    6          1             0        1.926121   -0.822328   -0.959269
    7          1             0        1.877635   -1.067945    0.785052
    8          1             0        0.779765    1.193632    1.108321
    9          1             0        0.829777    1.448197   -0.706411
   10          1             0       -0.379212   -1.061876    0.758632
   11          1             0       -0.329712   -0.806846   -1.054400
   12          1             0       -2.437809    0.351620    0.909893
   13          1             0       -2.387885    0.609010   -0.919984
 ---------------------------------------------------------------------
 SCF Done:  E(UB+HF-LYP) =  -157.734636866     A.U. after   15 cycles
                          Input orientation:                          
 ---------------------------------------------------------------------
 Center     Atomic     Atomic              Coordinates (Angstroms)
 Number     Number      Type              X           Y           Z
 ---------------------------------------------------------------------
    1          6             0        2.009416   -0.309125    0.005437
    2          6             0        0.970753    0.755941    0.126274
    3          6             0       -0.733510   -0.496850   -0.096709
    4          6             0       -1.932205    0.173980   -0.035018
    5          1             0        3.067509   -0.005094    0.077777
    6          1             0        1.927037   -0.827472   -0.959390
    7          1             0        1.878455   -1.072967    0.783741
    8          1             0        0.775450    1.182858    1.105509
    9          1             0        0.825379    1.437062   -0.706932
   10          1             0       -0.372750   -1.061998    0.756265
   11          1             0       -0.323346   -0.807716   -1.051828
   12          1             0       -2.434552    0.356986    0.910819
   13          1             0       -2.384678    0.614410   -0.919183
 ---------------------------------------------------------------------
 SCF Done:  E(UB+HF-LYP) =  -157.736468595     A.U. after   14 cycles
                          Input orientation:                          
 ---------------------------------------------------------------------
 Center     Atomic     Atomic              Coordinates (Angstroms)
 Number     Number      Type              X           Y           Z
 ---------------------------------------------------------------------
    1          6             0        2.028711   -0.307900    0.006149
    2          6             0        1.001944    0.764227    0.128315
    3          6             0       -0.772824   -0.518592   -0.100862
    4          6             0       -1.948506    0.172180   -0.035735
    5          1             0        3.083767    0.009896    0.080193
    6          1             0        1.952627   -0.824927   -0.960008
    7          1             0        1.904162   -1.070760    0.786597
    8          1             0        0.786205    1.182455    1.106322
    9          1             0        0.836204    1.436871   -0.707166
   10          1             0       -0.403418   -1.071253    0.756119
   11          1             0       -0.353903   -0.816351   -1.055934
   12          1             0       -2.445960    0.363364    0.911265
   13          1             0       -2.396051    0.620805   -0.918496
 ---------------------------------------------------------------------
 SCF Done:  E(UB+HF-LYP) =  -157.735353768     A.U. after   15 cycles
                          Input orientation:                          
 ---------------------------------------------------------------------
 Center     Atomic     Atomic              Coordinates (Angstroms)
 Number     Number      Type              X           Y           Z
 ---------------------------------------------------------------------
    1          6             0        2.058064   -0.310354    0.006613
    2          6             0        1.020499    0.754856    0.127529
    3          6             0       -0.810546   -0.529213   -0.103420
    4          6             0       -1.971671    0.176914   -0.035726
    5          1             0        3.098443    0.049306    0.086001
    6          1             0        1.991903   -0.825911   -0.960300
    7          1             0        1.943465   -1.071895    0.788927
    8          1             0        0.801948    1.172002    1.105404
    9          1             0        0.851950    1.426493   -0.708237
   10          1             0       -0.440237   -1.082072    0.753889
   11          1             0       -0.390705   -0.826992   -1.058825
   12          1             0       -2.465029    0.374698    0.912167
   13          1             0       -2.415126    0.632182   -0.917261
 ---------------------------------------------------------------------
 SCF Done:  E(UB+HF-LYP) =  -157.735921646     A.U. after   15 cycles
                          Input orientation:                          
 ---------------------------------------------------------------------
 Center     Atomic     Atomic              Coordinates (Angstroms)
 Number     Number      Type              X           Y           Z
 ---------------------------------------------------------------------
    1          6             0        2.088943   -0.308301    0.007748
    2          6             0        1.032524    0.741279    0.125962
    3          6             0       -0.847253   -0.541109   -0.106121
    4          6             0       -1.994093    0.184251   -0.035321
    5          1             0        3.115544    0.087369    0.091670
    6          1             0        2.038235   -0.823611   -0.959999
    7          1             0        1.989875   -1.069728    0.792004
    8          1             0        0.815996    1.159807    1.104240
    9          1             0        0.866042    1.414438   -0.709630
   10          1             0       -0.484346   -1.098659    0.751880
   11          1             0       -0.434731   -0.843028   -1.063916
   12          1             0       -2.481863    0.389873    0.913844
   13          1             0       -2.431916    0.647432   -0.915600
 ---------------------------------------------------------------------
 SCF Done:  E(UB+HF-LYP) =  -157.736501720     A.U. after   15 cycles
                          Input orientation:                          
 ---------------------------------------------------------------------
 Center     Atomic     Atomic              Coordinates (Angstroms)
 Number     Number      Type              X           Y           Z
 ---------------------------------------------------------------------
    1          6             0        2.119692   -0.305363    0.009004
    2          6             0        1.040186    0.723883    0.123736
    3          6             0       -0.881619   -0.551374   -0.108526
    4          6             0       -2.014920    0.193020   -0.034669
    5          1             0        3.130647    0.127600    0.097599
    6          1             0        2.086190   -0.820866   -0.959135
    7          1             0        2.037927   -1.067007    0.794732
    8          1             0        0.828809    1.146203    1.102185
    9          1             0        0.878873    1.400794   -0.710629
   10          1             0       -0.529655   -1.116894    0.749291
   11          1             0       -0.479963   -0.860811   -1.068963
   12          1             0       -2.496605    0.406590    0.915869
   13          1             0       -2.446604    0.664242   -0.913733
 ---------------------------------------------------------------------
 SCF Done:  E(UB+HF-LYP) =  -157.736916846     A.U. after   19 cycles
                          Input orientation:                          
 ---------------------------------------------------------------------
 Center     Atomic     Atomic              Coordinates (Angstroms)
 Number     Number      Type              X           Y           Z
 ---------------------------------------------------------------------
    1          6             0        2.146416   -0.300368    0.010445
    2          6             0        1.039836    0.702602    0.120749
    3          6             0       -0.909101   -0.561238   -0.110686
    4          6             0       -2.028156    0.204499   -0.033428
    5          1             0        3.141629    0.166954    0.103275
    6          1             0        2.132418   -0.816518   -0.957640
    7          1             0        2.084295   -1.062570    0.797197
    8          1             0        0.832335    1.129836    1.098564
    9          1             0        0.882402    1.384141   -0.711376
   10          1             0       -0.572084   -1.138284    0.746009
   11          1             0       -0.522313   -0.881859   -1.074054
   12          1             0       -2.502388    0.427543    0.918697
   13          1             0       -2.452332    0.685277   -0.910989
 ---------------------------------------------------------------------
 SCF Done:  E(UB+HF-LYP) =  -157.737087764     A.U. after   13 cycles
                          Input orientation:                          
 ---------------------------------------------------------------------
 Center     Atomic     Atomic              Coordinates (Angstroms)
 Number     Number      Type              X           Y           Z
 ---------------------------------------------------------------------
    1          6             0        2.152774   -0.297368    0.011049
    2          6             0        1.035356    0.693846    0.119410
    3          6             0       -0.914828   -0.566535   -0.111603
    4          6             0       -2.025998    0.210892   -0.032478
    5          1             0        3.142538    0.181413    0.105220
    6          1             0        2.147034   -0.813886   -0.956936
    7          1             0        2.099015   -1.059850    0.798158
    8          1             0        0.824596    1.121416    1.096509
    9          1             0        0.874687    1.375605   -0.712069
   10          1             0       -0.585072   -1.149169    0.744437
   11          1             0       -0.535262   -0.892621   -1.076281
   12          1             0       -2.495978    0.439256    0.920497
   13          1             0       -2.445904    0.697015   -0.909152
 ---------------------------------------------------------------------
 SCF Done:  E(UB+HF-LYP) =  -157.737103998     A.U. after   13 cycles
                          Input orientation:                          
 ---------------------------------------------------------------------
 Center     Atomic     Atomic              Coordinates (Angstroms)
 Number     Number      Type              X           Y           Z
 ---------------------------------------------------------------------
    1          6             0        2.154523   -0.296626    0.011209
    2          6             0        1.033893    0.690965    0.118977
    3          6             0       -0.916606   -0.569480   -0.112078
    4          6             0       -2.023320    0.213958   -0.031980
    5          1             0        3.141173    0.188501    0.106103
    6          1             0        2.151485   -0.813021   -0.956810
    7          1             0        2.103529   -1.058949    0.798598
    8          1             0        0.819442    1.117198    1.095820
    9          1             0        0.869562    1.371435   -0.712799
   10          1             0       -0.589003   -1.153938    0.743507
   11          1             0       -0.539193   -0.897409   -1.076941
   12          1             0       -2.491303    0.444805    0.921386
   13          1             0       -2.441225    0.702576   -0.908230
 ---------------------------------------------------------------------
 SCF Done:  E(UB+HF-LYP) =  -157.737108932     A.U. after    9 cycles
                          Input orientation:                          
 ---------------------------------------------------------------------
 Center     Atomic     Atomic              Coordinates (Angstroms)
 Number     Number      Type              X           Y           Z
 ---------------------------------------------------------------------
    1          6             0        2.154816   -0.296987    0.011171
    2          6             0        1.034219    0.690809    0.118969
    3          6             0       -0.917171   -0.570024   -0.112171
    4          6             0       -2.023049    0.214383   -0.031914
    5          1             0        3.140483    0.190059    0.106288
    6          1             0        2.151701   -0.813194   -0.956889
    7          1             0        2.103767   -1.059136    0.798650
    8          1             0        0.818978    1.116516    1.095873
    9          1             0        0.869107    1.370798   -0.713051
   10          1             0       -0.588964   -1.154094    0.743360
   11          1             0       -0.539169   -0.897597   -1.076847
   12          1             0       -2.490921    0.445359    0.921474
   13          1             0       -2.440839    0.703123   -0.908150
 ---------------------------------------------------------------------
 SCF Done:  E(UB+HF-LYP) =  -157.737109451     A.U. after   10 cycles
    -- Stationary point found.
                          Input orientation:                          
 ---------------------------------------------------------------------
 Center     Atomic     Atomic              Coordinates (Angstroms)
 Number     Number      Type              X           Y           Z
 ---------------------------------------------------------------------
    1          6             0        2.154600   -0.293799   -0.009703
    2          6             0        1.033500    0.685925    0.152278
    3          6             0       -0.918564   -0.575483   -0.071633
    4          6             0       -2.021601    0.216966   -0.052799
    5          1             0        3.140621    0.195720    0.067534
    6          1             0        2.134002   -0.800138   -0.982765
    7          1             0        2.121127   -1.064012    0.770867
    8          1             0        0.832318    1.100638    1.135576
    9          1             0        0.854087    1.374819   -0.671108
   10          1             0       -0.580341   -1.159602    0.779792
   11          1             0       -0.550338   -0.901449   -1.040744
   12          1             0       -2.519158    0.480571    0.876919
   13          1             0       -2.407295    0.679858   -0.957453
 ---------------------------------------------------------------------
 SCF Done:  E(UB+HF-LYP) =  -157.736634075     A.U. after   20 cycles
                          Input orientation:                          
 ---------------------------------------------------------------------
 Center     Atomic     Atomic              Coordinates (Angstroms)
 Number     Number      Type              X           Y           Z
 ---------------------------------------------------------------------
    1          6             0        2.155041   -0.293816   -0.010210
    2          6             0        1.033491    0.685293    0.154082
    3          6             0       -0.918738   -0.574571   -0.075141
    4          6             0       -2.022210    0.217348   -0.054619
    5          1             0        3.140717    0.196781    0.064003
    6          1             0        2.126904   -0.789535   -0.988096
    7          1             0        2.129457   -1.072732    0.762473
    8          1             0        0.840194    1.094558    1.141999
    9          1             0        0.847095    1.378608   -0.663140
   10          1             0       -0.595559   -1.145074    0.789489
   11          1             0       -0.535986   -0.918580   -1.034168
   12          1             0       -2.523427    0.485851    0.872360
   13          1             0       -2.404022    0.675881   -0.962272
 ---------------------------------------------------------------------
 SCF Done:  E(UB+HF-LYP) =  -157.736955577     A.U. after   12 cycles
                          Input orientation:                          
 ---------------------------------------------------------------------
 Center     Atomic     Atomic              Coordinates (Angstroms)
 Number     Number      Type              X           Y           Z
 ---------------------------------------------------------------------
    1          6             0        2.155528   -0.293060   -0.011209
    2          6             0        1.032462    0.683745    0.155359
    3          6             0       -0.918953   -0.574841   -0.082017
    4          6             0       -2.020863    0.218868   -0.059421
    5          1             0        3.140416    0.199423    0.061510
    6          1             0        2.122774   -0.783019   -0.992450
    7          1             0        2.137000   -1.076303    0.756478
    8          1             0        0.844378    1.086828    1.147647
    9          1             0        0.839463    1.381114   -0.655768
   10          1             0       -0.613874   -1.131891    0.799255
   11          1             0       -0.522152   -0.937094   -1.026997
   12          1             0       -2.515728    0.487605    0.869822
   13          1             0       -2.407493    0.678641   -0.965449
 ---------------------------------------------------------------------
 SCF Done:  E(UB+HF-LYP) =  -157.737077355     A.U. after   20 cycles
                          Input orientation:                          
 ---------------------------------------------------------------------
 Center     Atomic     Atomic              Coordinates (Angstroms)
 Number     Number      Type              X           Y           Z
 ---------------------------------------------------------------------
    1          6             0        2.155599   -0.293076   -0.011968
    2          6             0        1.032761    0.684014    0.154856
    3          6             0       -0.918928   -0.574504   -0.083094
    4          6             0       -2.021227    0.218774   -0.060420
    5          1             0        3.140561    0.199117    0.061536
    6          1             0        2.123285   -0.784266   -0.992520
    7          1             0        2.136229   -1.075436    0.756720
    8          1             0        0.844476    1.085424    1.147787
    9          1             0        0.840492    1.382935   -0.655061
   10          1             0       -0.616015   -1.130167    0.799881
   11          1             0       -0.519621   -0.937961   -1.026416
   12          1             0       -2.514015    0.486604    0.870461
   13          1             0       -2.410638    0.678555   -0.964999
 ---------------------------------------------------------------------
 SCF Done:  E(UB+HF-LYP) =  -157.737083806     A.U. after   10 cycles
                          Input orientation:                          
 ---------------------------------------------------------------------
 Center     Atomic     Atomic              Coordinates (Angstroms)
 Number     Number      Type              X           Y           Z
 ---------------------------------------------------------------------
    1          6             0        2.155010   -0.293208   -0.013113
    2          6             0        1.032955    0.684847    0.153528
    3          6             0       -0.918160   -0.573774   -0.083191
    4          6             0       -2.021391    0.218299   -0.060934
    5          1             0        3.140513    0.197636    0.061790
    6          1             0        2.123277   -0.785960   -0.992803
    7          1             0        2.133698   -1.074410    0.756836
    8          1             0        0.843541    1.083164    1.147429
    9          1             0        0.842721    1.386667   -0.654429
   10          1             0       -0.616751   -1.128805    0.800861
   11          1             0       -0.516251   -0.937040   -1.025300
   12          1             0       -2.512796    0.485592    0.870917
   13          1             0       -2.413409    0.677006   -0.964831
 ---------------------------------------------------------------------
 SCF Done:  E(UB+HF-LYP) =  -157.737088689     A.U. after   11 cycles
                          Input orientation:                          
 ---------------------------------------------------------------------
 Center     Atomic     Atomic              Coordinates (Angstroms)
 Number     Number      Type              X           Y           Z
 ---------------------------------------------------------------------
    1          6             0        2.154277   -0.293370   -0.013867
    2          6             0        1.033408    0.685987    0.152293
    3          6             0       -0.917614   -0.573442   -0.082225
    4          6             0       -2.021508    0.217598   -0.060597
    5          1             0        3.140490    0.195918    0.062030
    6          1             0        2.122991   -0.786735   -0.993270
    7          1             0        2.131151   -1.074063    0.756575
    8          1             0        0.842046    1.081835    1.146744
    9          1             0        0.845393    1.389927   -0.654406
   10          1             0       -0.615904   -1.128527    0.801758
   11          1             0       -0.514505   -0.935307   -1.024261
   12          1             0       -2.513621    0.484832    0.870902
   13          1             0       -2.413645    0.675363   -0.964916
 ---------------------------------------------------------------------
 SCF Done:  E(UB+HF-LYP) =  -157.737090961     A.U. after   11 cycles
                          Input orientation:                          
 ---------------------------------------------------------------------
 Center     Atomic     Atomic              Coordinates (Angstroms)
 Number     Number      Type              X           Y           Z
 ---------------------------------------------------------------------
    1          6             0        2.153974   -0.293455   -0.014241
    2          6             0        1.033690    0.686617    0.151422
    3          6             0       -0.917413   -0.573357   -0.081371
    4          6             0       -2.021629    0.217214   -0.060238
    5          1             0        3.140504    0.195118    0.062255
    6          1             0        2.123050   -0.786639   -0.993776
    7          1             0        2.129789   -1.074242    0.756031
    8          1             0        0.840618    1.080946    1.146097
    9          1             0        0.847489    1.391852   -0.654612
   10          1             0       -0.615546   -1.128353    0.802670
   11          1             0       -0.513755   -0.934792   -1.023288
   12          1             0       -2.514753    0.484230    0.870760
   13          1             0       -2.413060    0.674876   -0.964948
 ---------------------------------------------------------------------
 SCF Done:  E(UB+HF-LYP) =  -157.737091953     A.U. after   11 cycles
                          Input orientation:                          
 ---------------------------------------------------------------------
 Center     Atomic     Atomic              Coordinates (Angstroms)
 Number     Number      Type              X           Y           Z
 ---------------------------------------------------------------------
    1          6             0        2.153890   -0.293435   -0.014428
    2          6             0        1.033717    0.686847    0.150750
    3          6             0       -0.917314   -0.573396   -0.080747
    4          6             0       -2.021604    0.217097   -0.059995
    5          1             0        3.140502    0.194885    0.062604
    6          1             0        2.123430   -0.786181   -0.994224
    7          1             0        2.129036   -1.074543    0.755462
    8          1             0        0.839242    1.080259    1.145474
    9          1             0        0.848900    1.392873   -0.654950
   10          1             0       -0.615559   -1.128242    0.803456
   11          1             0       -0.513550   -0.935081   -1.022504
   12          1             0       -2.515457    0.483770    0.870704
   13          1             0       -2.412276    0.675161   -0.964840
 ---------------------------------------------------------------------
 SCF Done:  E(UB+HF-LYP) =  -157.737092455     A.U. after    8 cycles
                          Input orientation:                          
 ---------------------------------------------------------------------
 Center     Atomic     Atomic              Coordinates (Angstroms)
 Number     Number      Type              X           Y           Z
 ---------------------------------------------------------------------
    1          6             0        2.154021   -0.293343   -0.014504
    2          6             0        1.033664    0.686800    0.150280
    3          6             0       -0.917427   -0.573583   -0.080364
    4          6             0       -2.021538    0.217171   -0.059838
    5          1             0        3.140527    0.195100    0.063111
    6          1             0        2.124139   -0.785602   -0.994577
    7          1             0        2.128810   -1.074824    0.754975
    8          1             0        0.838241    1.079774    1.144967
    9          1             0        0.849588    1.393175   -0.655313
   10          1             0       -0.615850   -1.128299    0.803989
   11          1             0       -0.513890   -0.935776   -1.022020
   12          1             0       -2.515749    0.483642    0.870732
   13          1             0       -2.411578    0.675780   -0.964677
 ---------------------------------------------------------------------
 SCF Done:  E(UB+HF-LYP) =  -157.737092749     A.U. after    8 cycles
                          Input orientation:                          
 ---------------------------------------------------------------------
 Center     Atomic     Atomic              Coordinates (Angstroms)
 Number     Number      Type              X           Y           Z
 ---------------------------------------------------------------------
    1          6             0        2.154464   -0.293147   -0.014551
    2          6             0        1.033519    0.686424    0.149812
    3          6             0       -0.917833   -0.573971   -0.080069
    4          6             0       -2.021459    0.217481   -0.059670
    5          1             0        3.140608    0.195879    0.063989
    6          1             0        2.125524   -0.784771   -0.994975
    7          1             0        2.129077   -1.075126    0.754403
    8          1             0        0.837319    1.079182    1.144418
    9          1             0        0.849782    1.392927   -0.655769
   10          1             0       -0.616588   -1.128631    0.804436
   11          1             0       -0.514869   -0.936998   -1.021661
   12          1             0       -2.515741    0.484013    0.870850
   13          1             0       -2.410845    0.676751   -0.964451
 ---------------------------------------------------------------------
 SCF Done:  E(UB+HF-LYP) =  -157.737093061     A.U. after    8 cycles
                          Input orientation:                          
 ---------------------------------------------------------------------
 Center     Atomic     Atomic              Coordinates (Angstroms)
 Number     Number      Type              X           Y           Z
 ---------------------------------------------------------------------
    1          6             0        2.155317   -0.292825   -0.014519
    2          6             0        1.033209    0.685545    0.149473
    3          6             0       -0.918608   -0.574586   -0.079968
    4          6             0       -2.021348    0.218133   -0.059495
    5          1             0        3.140745    0.197429    0.065339
    6          1             0        2.127759   -0.783599   -0.995397
    7          1             0        2.130082   -1.075474    0.753752
    8          1             0        0.836701    1.078561    1.143927
    9          1             0        0.849050    1.391719   -0.656299
   10          1             0       -0.617851   -1.129349    0.804638
   11          1             0       -0.516699   -0.938790   -1.021576
   12          1             0       -2.515208    0.485243    0.871087
   13          1             0       -2.410191    0.678005   -0.964202
 ---------------------------------------------------------------------
 SCF Done:  E(UB+HF-LYP) =  -157.737093461     A.U. after   10 cycles
                          Input orientation:                          
 ---------------------------------------------------------------------
 Center     Atomic     Atomic              Coordinates (Angstroms)
 Number     Number      Type              X           Y           Z
 ---------------------------------------------------------------------
    1          6             0        2.156018   -0.292575   -0.014506
    2          6             0        1.032955    0.684793    0.149269
    3          6             0       -0.919246   -0.575030   -0.079947
    4          6             0       -2.021290    0.218670   -0.059353
    5          1             0        3.140873    0.198598    0.066746
    6          1             0        2.129741   -0.782446   -0.995858
    7          1             0        2.130764   -1.075936    0.753041
    8          1             0        0.836500    1.078139    1.143623
    9          1             0        0.848163    1.390573   -0.656684
   10          1             0       -0.618809   -1.129796    0.804777
   11          1             0       -0.518117   -0.940136   -1.021543
   12          1             0       -2.514567    0.486599    0.871298
   13          1             0       -2.410027    0.678559   -0.964102
 ---------------------------------------------------------------------
 SCF Done:  E(UB+HF-LYP) =  -157.737093770     A.U. after    9 cycles
                          Input orientation:                          
 ---------------------------------------------------------------------
 Center     Atomic     Atomic              Coordinates (Angstroms)
 Number     Number      Type              X           Y           Z
 ---------------------------------------------------------------------
    1          6             0        2.156748   -0.292311   -0.014609
    2          6             0        1.032688    0.684035    0.148776
    3          6             0       -0.919885   -0.575444   -0.079698
    4          6             0       -2.021270    0.219199   -0.059103
    5          1             0        3.141024    0.199612    0.069064
    6          1             0        2.132424   -0.780671   -0.996751
    7          1             0        2.130861   -1.076862    0.751710
    8          1             0        0.836037    1.077540    1.143040
    9          1             0        0.847502    1.389568   -0.657293
   10          1             0       -0.619715   -1.130006    0.805258
   11          1             0       -0.519537   -0.941632   -1.021204
   12          1             0       -2.513867    0.488232    0.871581
   13          1             0       -2.410052    0.678754   -0.964011
 ---------------------------------------------------------------------
 SCF Done:  E(UB+HF-LYP) =  -157.737094089     A.U. after   10 cycles
                          Input orientation:                          
 ---------------------------------------------------------------------
 Center     Atomic     Atomic              Coordinates (Angstroms)
 Number     Number      Type              X           Y           Z
 ---------------------------------------------------------------------
    1          6             0        2.157384   -0.292090   -0.014795
    2          6             0        1.032469    0.683394    0.148114
    3          6             0       -0.920430   -0.575759   -0.079283
    4          6             0       -2.021300    0.219620   -0.058797
    5          1             0        3.141154    0.200261    0.072242
    6          1             0        2.135515   -0.778337   -0.998025
    7          1             0        2.130233   -1.078290    0.749805
    8          1             0        0.835567    1.077083    1.142262
    9          1             0        0.847017    1.388673   -0.658109
   10          1             0       -0.620317   -1.129827    0.806010
   11          1             0       -0.520840   -0.943127   -1.020647
   12          1             0       -2.513150    0.489906    0.871916
   13          1             0       -2.410344    0.678507   -0.963933
 ---------------------------------------------------------------------
 SCF Done:  E(UB+HF-LYP) =  -157.737094446     A.U. after   10 cycles
                          Input orientation:                          
 ---------------------------------------------------------------------
 Center     Atomic     Atomic              Coordinates (Angstroms)
 Number     Number      Type              X           Y           Z
 ---------------------------------------------------------------------
    1          6             0        2.157892   -0.291925   -0.015089
    2          6             0        1.032345    0.682944    0.147262
    3          6             0       -0.920867   -0.575970   -0.078670
    4          6             0       -2.021405    0.219881   -0.058418
    5          1             0        3.141258    0.200399    0.076588
    6          1             0        2.139130   -0.775248   -0.999796
    7          1             0        2.128633   -1.080386    0.747137
    8          1             0        0.835230    1.076922    1.141258
    9          1             0        0.846683    1.387888   -0.659196
   10          1             0       -0.620486   -1.129137    0.807096
   11          1             0       -0.522054   -0.944663   -1.019841
   12          1             0       -2.512438    0.491610    0.872306
   13          1             0       -2.410963    0.677699   -0.963876
 ---------------------------------------------------------------------
 SCF Done:  E(UB+HF-LYP) =  -157.737094875     A.U. after    8 cycles
                          Input orientation:                          
 ---------------------------------------------------------------------
 Center     Atomic     Atomic              Coordinates (Angstroms)
 Number     Number      Type              X           Y           Z
 ---------------------------------------------------------------------
    1          6             0        2.158097   -0.291867   -0.015460
    2          6             0        1.032362    0.682867    0.146373
    3          6             0       -0.921034   -0.576002   -0.077959
    4          6             0       -2.021558    0.219871   -0.058035
    5          1             0        3.141289    0.199817    0.081434
    6          1             0        2.142547   -0.771901   -1.001794
    7          1             0        2.126084   -1.082845    0.744091
    8          1             0        0.835210    1.077213    1.140221
    9          1             0        0.846560    1.387442   -0.660360
   10          1             0       -0.620040   -1.127955    0.808354
   11          1             0       -0.522845   -0.945927   -1.018905
   12          1             0       -2.511873    0.492969    0.872668
   13          1             0       -2.411840    0.676332   -0.963866
 ---------------------------------------------------------------------
 SCF Done:  E(UB+HF-LYP) =  -157.737095322     A.U. after    8 cycles
                          Input orientation:                          
 ---------------------------------------------------------------------
 Center     Atomic     Atomic              Coordinates (Angstroms)
 Number     Number      Type              X           Y           Z
 ---------------------------------------------------------------------
    1          6             0        2.157946   -0.291917   -0.015863
    2          6             0        1.032510    0.683205    0.145556
    3          6             0       -0.920883   -0.575861   -0.077237
    4          6             0       -2.021711    0.219585   -0.057697
    5          1             0        3.141232    0.198550    0.086159
    6          1             0        2.145294   -0.768709   -1.003772
    7          1             0        2.122825   -1.085357    0.741032
    8          1             0        0.835514    1.077927    1.139292
    9          1             0        0.846660    1.387445   -0.661440
   10          1             0       -0.619035   -1.126437    0.809634
   11          1             0       -0.523063   -0.946786   -1.017941
   12          1             0       -2.511494    0.493818    0.872954
   13          1             0       -2.412837    0.674552   -0.963914
 ---------------------------------------------------------------------
 SCF Done:  E(UB+HF-LYP) =  -157.737095736     A.U. after    8 cycles
                          Input orientation:                          
 ---------------------------------------------------------------------
 Center     Atomic     Atomic              Coordinates (Angstroms)
 Number     Number      Type              X           Y           Z
 ---------------------------------------------------------------------
    1          6             0        2.157509   -0.292048   -0.016201
    2          6             0        1.032732    0.683836    0.144992
    3          6             0       -0.920479   -0.575612   -0.076670
    4          6             0       -2.021811    0.219123   -0.057472
    5          1             0        3.141104    0.196974    0.089718
    6          1             0        2.146827   -0.766360   -1.005296
    7          1             0        2.119637   -1.087359    0.738641
    8          1             0        0.836034    1.078867    1.138670
    9          1             0        0.846930    1.387848   -0.662197
   10          1             0       -0.617766   -1.124991    0.810639
   11          1             0       -0.522724   -0.947114   -1.017169
   12          1             0       -2.511327    0.494059    0.873113
   13          1             0       -2.413709    0.672791   -0.964005
 ---------------------------------------------------------------------
 SCF Done:  E(UB+HF-LYP) =  -157.737096056     A.U. after    9 cycles
                          Input orientation:                          
 ---------------------------------------------------------------------
 Center     Atomic     Atomic              Coordinates (Angstroms)
 Number     Number      Type              X           Y           Z
 ---------------------------------------------------------------------
    1          6             0        2.156926   -0.292211   -0.016445
    2          6             0        1.032971    0.684591    0.144675
    3          6             0       -0.919951   -0.575330   -0.076282
    4          6             0       -2.021852    0.218599   -0.057353
    5          1             0        3.140950    0.195383    0.092026
    6          1             0        2.147327   -0.764868   -1.006324
    7          1             0        2.116886   -1.088765    0.737008
    8          1             0        0.836626    1.079853    1.138336
    9          1             0        0.847291    1.388480   -0.662636
   10          1             0       -0.616488   -1.123791    0.811330
   11          1             0       -0.522043   -0.947055   -1.016625
   12          1             0       -2.511305    0.493868    0.873167
   13          1             0       -2.414379    0.671260   -0.964117
 ---------------------------------------------------------------------
 SCF Done:  E(UB+HF-LYP) =  -157.737096288     A.U. after    9 cycles
                          Input orientation:                          
 ---------------------------------------------------------------------
 Center     Atomic     Atomic              Coordinates (Angstroms)
 Number     Number      Type              X           Y           Z
 ---------------------------------------------------------------------
    1          6             0        2.156336   -0.292371   -0.016580
    2          6             0        1.033182    0.685307    0.144588
    3          6             0       -0.919426   -0.575072   -0.076081
    4          6             0       -2.021848    0.218118   -0.057327
    5          1             0        3.140809    0.194037    0.093117
    6          1             0        2.147031   -0.764192   -1.006852
    7          1             0        2.114879   -1.089548    0.736158
    8          1             0        0.837186    1.080734    1.138257
    9          1             0        0.847650    1.389151   -0.662789
   10          1             0       -0.615397   -1.122955    0.811689
   11          1             0       -0.521250   -0.946736   -1.016334
   12          1             0       -2.511381    0.493418    0.873142
   13          1             0       -2.414813    0.670123   -0.964227
 ---------------------------------------------------------------------
 SCF Done:  E(UB+HF-LYP) =  -157.737096452     A.U. after   17 cycles
                          Input orientation:                          
 ---------------------------------------------------------------------
 Center     Atomic     Atomic              Coordinates (Angstroms)
 Number     Number      Type              X           Y           Z
 ---------------------------------------------------------------------
    1          6             0        2.155769   -0.292525   -0.016620
    2          6             0        1.033361    0.685954    0.144690
    3          6             0       -0.918926   -0.574835   -0.076035
    4          6             0       -2.021816    0.217690   -0.057374
    5          1             0        3.140687    0.192936    0.093244
    6          1             0        2.146139   -0.764158   -1.006977
    7          1             0        2.113544   -1.089835    0.735943
    8          1             0        0.837713    1.081512    1.138379
    9          1             0        0.847973    1.389789   -0.662724
   10          1             0       -0.614479   -1.122419    0.811772
   11          1             0       -0.520413   -0.946218   -1.016258
   12          1             0       -2.511534    0.492791    0.873057
   13          1             0       -2.415060    0.669330   -0.964334
 ---------------------------------------------------------------------
 SCF Done:  E(UB+HF-LYP) =  -157.737096584     A.U. after    8 cycles
                          Input orientation:                          
 ---------------------------------------------------------------------
 Center     Atomic     Atomic              Coordinates (Angstroms)
 Number     Number      Type              X           Y           Z
 ---------------------------------------------------------------------
    1          6             0        2.155267   -0.292683   -0.016485
    2          6             0        1.033498    0.686449    0.145149
    3          6             0       -0.918493   -0.574615   -0.076274
    4          6             0       -2.021763    0.217365   -0.057551
    5          1             0        3.140599    0.192307    0.091705
    6          1             0        2.144239   -0.765260   -1.006388
    7          1             0        2.113455   -1.089274    0.736853
    8          1             0        0.838247    1.082138    1.138867
    9          1             0        0.848162    1.390271   -0.662286
   10          1             0       -0.613838   -1.122386    0.811337
   11          1             0       -0.519543   -0.945299   -1.016592
   12          1             0       -2.511843    0.491868    0.872865
   13          1             0       -2.415030    0.669132   -0.964439
 ---------------------------------------------------------------------
 SCF Done:  E(UB+HF-LYP) =  -157.737096743     A.U. after   17 cycles
                          Input orientation:                          
 ---------------------------------------------------------------------
 Center     Atomic     Atomic              Coordinates (Angstroms)
 Number     Number      Type              X           Y           Z
 ---------------------------------------------------------------------
    1          6             0        2.155186   -0.292700   -0.016178
    2          6             0        1.033462    0.686408    0.145891
    3          6             0       -0.918448   -0.574615   -0.076905
    4          6             0       -2.021665    0.217432   -0.057881
    5          1             0        3.140665    0.192945    0.087638
    6          1             0        2.141521   -0.768080   -1.004734
    7          1             0        2.115791   -1.087173    0.739486
    8          1             0        0.838193    1.081762    1.139735
    9          1             0        0.848234    1.390560   -0.661294
   10          1             0       -0.614376   -1.123423    0.810270
   11          1             0       -0.518975   -0.944280   -1.017410
   12          1             0       -2.512235    0.490875    0.872592
   13          1             0       -2.414393    0.670303   -0.964448
 ---------------------------------------------------------------------
 SCF Done:  E(UB+HF-LYP) =  -157.737096924     A.U. after    7 cycles
    -- Stationary point found.
                          Input orientation:                          
 ---------------------------------------------------------------------
 Center     Atomic     Atomic              Coordinates (Angstroms)
 Number     Number      Type              X           Y           Z
 ---------------------------------------------------------------------
    1          6             0        2.153048   -0.289182   -0.037034
    2          6             0        1.033410    0.681518    0.179192
    3          6             0       -0.919838   -0.578722   -0.036341
    4          6             0       -2.018520    0.218917   -0.078859
    5          1             0        3.139412    0.198287    0.048320
    6          1             0        2.120684   -0.754915   -1.029761
    7          1             0        2.130380   -1.091104    0.711434
    8          1             0        0.852663    1.065729    1.178996
    9          1             0        0.834829    1.394807   -0.618657
   10          1             0       -0.606311   -1.127631    0.847082
   11          1             0       -0.530336   -0.946538   -0.981634
   12          1             0       -2.537957    0.524045    0.825860
   13          1             0       -2.378506    0.644802   -1.011838
 ---------------------------------------------------------------------
 SCF Done:  E(UB+HF-LYP) =  -157.736594140     A.U. after   20 cycles
                          Input orientation:                          
 ---------------------------------------------------------------------
 Center     Atomic     Atomic              Coordinates (Angstroms)
 Number     Number      Type              X           Y           Z
 ---------------------------------------------------------------------
    1          6             0        2.153932   -0.288692   -0.040328
    2          6             0        1.032558    0.680000    0.179334
    3          6             0       -0.919612   -0.577538   -0.046052
    4          6             0       -2.018514    0.219980   -0.085925
    5          1             0        3.139633    0.200015    0.045560
    6          1             0        2.112595   -0.738441   -1.040086
    7          1             0        2.141474   -1.102412    0.695429
    8          1             0        0.862006    1.048424    1.188364
    9          1             0        0.825894    1.405214   -0.603798
   10          1             0       -0.640924   -1.097002    0.866948
   11          1             0       -0.499644   -0.980526   -0.964112
   12          1             0       -2.533345    0.528993    0.820094
   13          1             0       -2.383096    0.642000   -1.018669
 ---------------------------------------------------------------------
 SCF Done:  E(UB+HF-LYP) =  -157.737049022     A.U. after   19 cycles
                          Input orientation:                          
 ---------------------------------------------------------------------
 Center     Atomic     Atomic              Coordinates (Angstroms)
 Number     Number      Type              X           Y           Z
 ---------------------------------------------------------------------
    1          6             0        2.154808   -0.288038   -0.042388
    2          6             0        1.032740    0.680092    0.174601
    3          6             0       -0.920361   -0.578114   -0.042978
    4          6             0       -2.018841    0.219831   -0.084498
    5          1             0        3.140133    0.197485    0.063440
    6          1             0        2.125663   -0.724870   -1.048165
    7          1             0        2.131489   -1.110972    0.682906
    8          1             0        0.859937    1.046594    1.183698
    9          1             0        0.827010    1.406358   -0.607464
   10          1             0       -0.642068   -1.091818    0.873152
   11          1             0       -0.500928   -0.987685   -0.957984
   12          1             0       -2.531319    0.533751    0.821050
   13          1             0       -2.385306    0.637400   -1.018609
 ---------------------------------------------------------------------
 SCF Done:  E(UB+HF-LYP) =  -157.737054864     A.U. after   10 cycles
                          Input orientation:                          
 ---------------------------------------------------------------------
 Center     Atomic     Atomic              Coordinates (Angstroms)
 Number     Number      Type              X           Y           Z
 ---------------------------------------------------------------------
    1          6             0        2.154466   -0.287921   -0.043191
    2          6             0        1.032979    0.681013    0.173147
    3          6             0       -0.919991   -0.577987   -0.041938
    4          6             0       -2.018914    0.219353   -0.084073
    5          1             0        3.140256    0.195509    0.067813
    6          1             0        2.128421   -0.722149   -1.050154
    7          1             0        2.127089   -1.112866    0.679734
    8          1             0        0.859116    1.046390    1.182462
    9          1             0        0.828362    1.408309   -0.608291
   10          1             0       -0.641329   -1.090580    0.874719
   11          1             0       -0.500324   -0.988734   -0.956228
   12          1             0       -2.531172    0.534164    0.821310
   13          1             0       -2.386000    0.635514   -1.018549
 ---------------------------------------------------------------------
 SCF Done:  E(UB+HF-LYP) =  -157.737055760     A.U. after    8 cycles
                          Input orientation:                          
 ---------------------------------------------------------------------
 Center     Atomic     Atomic              Coordinates (Angstroms)
 Number     Number      Type              X           Y           Z
 ---------------------------------------------------------------------
    1          6             0        2.154254   -0.287851   -0.043562
    2          6             0        1.032995    0.681389    0.172485
    3          6             0       -0.919764   -0.577991   -0.041496
    4          6             0       -2.018763    0.219222   -0.083883
    5          1             0        3.140161    0.194932    0.069095
    6          1             0        2.129284   -0.721424   -1.050825
    7          1             0        2.125290   -1.113289    0.678765
    8          1             0        0.858488    1.045920    1.181980
    9          1             0        0.829005    1.409383   -0.608479
   10          1             0       -0.641078   -1.090339    0.875300
   11          1             0       -0.499985   -0.989228   -0.955491
   12          1             0       -2.531004    0.534345    0.821395
   13          1             0       -2.385923    0.634946   -1.018524
 ---------------------------------------------------------------------
 SCF Done:  E(UB+HF-LYP) =  -157.737055983     A.U. after    8 cycles
    -- Stationary point found.
                          Input orientation:                          
 ---------------------------------------------------------------------
 Center     Atomic     Atomic              Coordinates (Angstroms)
 Number     Number      Type              X           Y           Z
 ---------------------------------------------------------------------
    1          6             0        2.150226   -0.283985   -0.064444
    2          6             0        1.033614    0.676524    0.205532
    3          6             0       -0.921222   -0.580828   -0.000825
    4          6             0       -2.013912    0.219610   -0.104766
    5          1             0        3.137513    0.199808    0.030518
    6          1             0        2.106311   -0.707306   -1.075436
    7          1             0        2.136229   -1.116858    0.649774
    8          1             0        0.873911    1.029855    1.220484
    9          1             0        0.817310    1.413805   -0.565489
   10          1             0       -0.633338   -1.093128    0.912549
   11          1             0       -0.511887   -0.990243   -0.920016
   12          1             0       -2.553933    0.565782    0.772723
   13          1             0       -2.347866    0.606979   -1.063844
 ---------------------------------------------------------------------
 SCF Done:  E(UB+HF-LYP) =  -157.736525103     A.U. after   19 cycles
                          Input orientation:                          
 ---------------------------------------------------------------------
 Center     Atomic     Atomic              Coordinates (Angstroms)
 Number     Number      Type              X           Y           Z
 ---------------------------------------------------------------------
    1          6             0        2.151019   -0.283045   -0.068874
    2          6             0        1.032359    0.675377    0.203783
    3          6             0       -0.920899   -0.580940   -0.009736
    4          6             0       -2.013006    0.220651   -0.111452
    5          1             0        3.137415    0.202477    0.026523
    6          1             0        2.098951   -0.692145   -1.085321
    7          1             0        2.145795   -1.125474    0.634031
    8          1             0        0.880741    1.008206    1.228222
    9          1             0        0.811217    1.427874   -0.549126
   10          1             0       -0.670026   -1.063453    0.931261
   11          1             0       -0.481700   -1.025619   -0.898977
   12          1             0       -2.548388    0.571500    0.766940
   13          1             0       -2.350520    0.604606   -1.070516
 ---------------------------------------------------------------------
 SCF Done:  E(UB+HF-LYP) =  -157.736984693     A.U. after   19 cycles
                          Input orientation:                          
 ---------------------------------------------------------------------
 Center     Atomic     Atomic              Coordinates (Angstroms)
 Number     Number      Type              X           Y           Z
 ---------------------------------------------------------------------
    1          6             0        2.151694   -0.282336   -0.069544
    2          6             0        1.032363    0.675162    0.202246
    3          6             0       -0.921614   -0.581579   -0.009273
    4          6             0       -2.013000    0.220994   -0.111351
[...]
 ---------------------------------------------------------------------
 SCF Done:  E(UB+HF-LYP) =  -157.737055478     A.U. after   11 cycles
                          Input orientation:                          
 ---------------------------------------------------------------------
 Center     Atomic     Atomic              Coordinates (Angstroms)
 Number     Number      Type              X           Y           Z
 ---------------------------------------------------------------------
    1          6             0        1.960406    0.877765   -0.049399
    2          6             0        1.213076   -0.400204    0.178079
    3          6             0       -1.041756    0.159187   -0.044843
    4          6             0       -1.824044   -0.950791   -0.078913
    5          1             0        3.049471    0.741017    0.064334
    6          1             0        1.665284    1.655354    0.666263
    7          1             0        1.795996    1.271173   -1.060034
    8          1             0        1.257254   -1.163180   -0.594834
    9          1             0        1.163243   -0.790865    1.191648
   10          1             0       -0.777176    0.676616   -0.963001
   11          1             0       -0.944832    0.741664    0.867313
   12          1             0       -2.036411   -1.470319   -1.009599
   13          1             0       -2.207552   -1.407402    0.829746
 ---------------------------------------------------------------------
 SCF Done:  E(UB+HF-LYP) =  -157.737055587     A.U. after   10 cycles
                          Input orientation:                          
 ---------------------------------------------------------------------
 Center     Atomic     Atomic              Coordinates (Angstroms)
 Number     Number      Type              X           Y           Z
 ---------------------------------------------------------------------
    1          6             0        1.960561    0.877726   -0.049358
    2          6             0        1.212768   -0.399957    0.178030
    3          6             0       -1.042002    0.159189   -0.044838
    4          6             0       -1.823948   -0.951022   -0.078867
    5          1             0        3.049656    0.740585    0.063731
    6          1             0        1.666276    1.655207    0.666772
    7          1             0        1.795939    1.271690   -1.059753
    8          1             0        1.256740   -1.162926   -0.594911
    9          1             0        1.163057   -0.790719    1.191566
   10          1             0       -0.777095    0.676474   -0.962991
   11          1             0       -0.945502    0.742094    0.867095
   12          1             0       -2.035693   -1.470940   -1.009480
   13          1             0       -2.207798   -1.407385    0.829765
 ---------------------------------------------------------------------
 SCF Done:  E(UB+HF-LYP) =  -157.737055631     A.U. after    9 cycles
    -- Stationary point found.
                          Input orientation:                          
 ---------------------------------------------------------------------
 Center     Atomic     Atomic              Coordinates (Angstroms)
 Number     Number      Type              X           Y           Z
 ---------------------------------------------------------------------
    1          6             0        1.961718    0.881827   -0.028503
    2          6             0        1.213780   -0.404519    0.144682
    3          6             0       -1.039976    0.156019   -0.085516
    4          6             0       -1.827078   -0.950889   -0.057883
    5          1             0        3.048945    0.745086    0.101956
    6          1             0        1.655697    1.647001    0.695927
    7          1             0        1.811545    1.291970   -1.034735
    8          1             0        1.267184   -1.154996   -0.637820
    9          1             0        1.153479   -0.810531    1.152738
   10          1             0       -0.765654    0.678281   -0.998416
   11          1             0       -0.952544    0.736019    0.829748
   12          1             0       -2.060375   -1.507374   -0.961934
   13          1             0       -2.193763   -1.367880    0.876517
 ---------------------------------------------------------------------
 SCF Done:  E(UB+HF-LYP) =  -157.736636068     A.U. after   13 cycles
                          Input orientation:                          
 ---------------------------------------------------------------------
 Center     Atomic     Atomic              Coordinates (Angstroms)
 Number     Number      Type              X           Y           Z
 ---------------------------------------------------------------------
    1          6             0        1.959148    0.883134   -0.023457
    2          6             0        1.213180   -0.404543    0.148171
    3          6             0       -1.039777    0.156461   -0.078185
    4          6             0       -1.827649   -0.949709   -0.052088
    5          1             0        3.046990    0.743741    0.099749
    6          1             0        1.653635    1.634991    0.714860
    7          1             0        1.808853    1.311260   -1.022208
    8          1             0        1.270739   -1.139771   -0.650706
    9          1             0        1.153916   -0.831566    1.146622
   10          1             0       -0.783644    0.633574   -1.020372
   11          1             0       -0.925809    0.774413    0.808591
   12          1             0       -2.058022   -1.507743   -0.955812
   13          1             0       -2.198601   -1.364228    0.881596
 ---------------------------------------------------------------------
 SCF Done:  E(UB+HF-LYP) =  -157.737092559     A.U. after   20 cycles
                          Input orientation:                          
 ---------------------------------------------------------------------
 Center     Atomic     Atomic              Coordinates (Angstroms)
 Number     Number      Type              X           Y           Z
 ---------------------------------------------------------------------
    1          6             0        1.958906    0.882307   -0.022660
    2          6             0        1.213295   -0.405095    0.149706
    3          6             0       -1.039570    0.156791   -0.078888
    4          6             0       -1.827022   -0.949667   -0.052217
    5          1             0        3.047889    0.743682    0.090726
    6          1             0        1.659432    1.630379    0.722009
    7          1             0        1.799794    1.315881   -1.017709
    8          1             0        1.269439   -1.139519   -0.649873
    9          1             0        1.155116   -0.833012    1.147561
   10          1             0       -0.781107    0.630174   -1.022248
   11          1             0       -0.928656    0.780322    0.804076
   12          1             0       -2.053155   -1.510843   -0.955053
   13          1             0       -2.201404   -1.361386    0.881330
 ---------------------------------------------------------------------
 SCF Done:  E(UB+HF-LYP) =  -157.737095956     A.U. after   11 cycles
                          Input orientation:                          
 ---------------------------------------------------------------------
 Center     Atomic     Atomic              Coordinates (Angstroms)
 Number     Number      Type              X           Y           Z
 ---------------------------------------------------------------------
    1          6             0        1.959582    0.882508   -0.022343
    2          6             0        1.213797   -0.404813    0.150341
    3          6             0       -1.039920    0.156619   -0.079319
    4          6             0       -1.827216   -0.949867   -0.052395
    5          1             0        3.048757    0.742814    0.087309
    6          1             0        1.662600    1.629451    0.724436
    7          1             0        1.797026    1.317695   -1.016125
    8          1             0        1.268723   -1.139055   -0.649456
    9          1             0        1.155357   -0.832744    1.148166
   10          1             0       -0.780794    0.628895   -1.023019
   11          1             0       -0.930206    0.781264    0.803036
   12          1             0       -2.051779   -1.512177   -0.954920
   13          1             0       -2.202968   -1.360577    0.881051
 ---------------------------------------------------------------------
 SCF Done:  E(UB+HF-LYP) =  -157.737096443     A.U. after   17 cycles
                          Input orientation:                          
 ---------------------------------------------------------------------
 Center     Atomic     Atomic              Coordinates (Angstroms)
 Number     Number      Type              X           Y           Z
 ---------------------------------------------------------------------
    1          6             0        1.960062    0.882644   -0.022140
    2          6             0        1.214262   -0.404654    0.150815
    3          6             0       -1.040020    0.156448   -0.079690
    4          6             0       -1.827379   -0.949970   -0.052584
    5          1             0        3.049407    0.742425    0.084792
    6          1             0        1.664746    1.628729    0.726136
    7          1             0        1.795095    1.318948   -1.015032
    8          1             0        1.268374   -1.138870   -0.649025
    9          1             0        1.155359   -0.832291    1.148727
   10          1             0       -0.780578    0.628043   -1.023664
   11          1             0       -0.931149    0.781489    0.802487
   12          1             0       -2.051222   -1.512943   -0.954883
   13          1             0       -2.203999   -1.359984    0.880822
 ---------------------------------------------------------------------
 SCF Done:  E(UB+HF-LYP) =  -157.737096619     A.U. after   10 cycles
    -- Stationary point found.
                          Input orientation:                          
 ---------------------------------------------------------------------
 Center     Atomic     Atomic              Coordinates (Angstroms)
 Number     Number      Type              X           Y           Z
 ---------------------------------------------------------------------
    1          6             0        1.959552    0.885895   -0.001265
    2          6             0        1.216255   -0.409092    0.117493
    3          6             0       -1.037444    0.151886   -0.120313
    4          6             0       -1.829450   -0.948144   -0.031690
    5          1             0        3.047236    0.747166    0.123208
    6          1             0        1.651088    1.618977    0.754541
    7          1             0        1.808273    1.337747   -0.989395
    8          1             0        1.280434   -1.130512   -0.691397
    9          1             0        1.147097   -0.851740    1.109454
   10          1             0       -0.768874    0.628106   -1.059492
   11          1             0       -0.937808    0.773563    0.765695
   12          1             0       -2.074948   -1.546180   -0.905473
   13          1             0       -2.188452   -1.317657    0.925393
 ---------------------------------------------------------------------
 SCF Done:  E(UB+HF-LYP) =  -157.736647876     A.U. after   12 cycles
                          Input orientation:                          
 ---------------------------------------------------------------------
 Center     Atomic     Atomic              Coordinates (Angstroms)
 Number     Number      Type              X           Y           Z
 ---------------------------------------------------------------------
    1          6             0        1.957714    0.888080    0.003755
    2          6             0        1.218950   -0.409954    0.121144
    3          6             0       -1.037249    0.151513   -0.112736
    4          6             0       -1.832262   -0.945952   -0.026233
    5          1             0        3.046028    0.748535    0.121896
    6          1             0        1.646817    1.607387    0.771591
    7          1             0        1.805854    1.355609   -0.976918
    8          1             0        1.286114   -1.115074   -0.703735
    9          1             0        1.150096   -0.872371    1.102921
   10          1             0       -0.787162    0.581680   -1.078834
   11          1             0       -0.909450    0.808035    0.744070
   12          1             0       -2.076264   -1.544499   -0.899986
   13          1             0       -2.196227   -1.312975    0.929827
 ---------------------------------------------------------------------
 SCF Done:  E(UB+HF-LYP) =  -157.737102960     A.U. after   20 cycles
                          Input orientation:                          
 ---------------------------------------------------------------------
 Center     Atomic     Atomic              Coordinates (Angstroms)
 Number     Number      Type              X           Y           Z
 ---------------------------------------------------------------------
    1          6             0        1.958757    0.887353    0.004673
    2          6             0        1.218570   -0.409176    0.123163
    3          6             0       -1.036812    0.151149   -0.114114
    4          6             0       -1.831624   -0.946651   -0.026561
    5          1             0        3.048368    0.747126    0.108709
    6          1             0        1.658002    1.600494    0.782246
    7          1             0        1.794646    1.363435   -0.969952
    8          1             0        1.282325   -1.113536   -0.702343
    9          1             0        1.150273   -0.871510    1.104715
   10          1             0       -0.784553    0.575885   -1.082041
   11          1             0       -0.913881    0.814295    0.737817
   12          1             0       -2.070436   -1.549508   -0.898768
   13          1             0       -2.200679   -1.309342    0.929217
 ---------------------------------------------------------------------
 SCF Done:  E(UB+HF-LYP) =  -157.737108663     A.U. after   12 cycles
                          Input orientation:                          
 ---------------------------------------------------------------------
 Center     Atomic     Atomic              Coordinates (Angstroms)
 Number     Number      Type              X           Y           Z
 ---------------------------------------------------------------------
    1          6             0        1.958363    0.886972    0.004890
    2          6             0        1.217230   -0.409063    0.123395
    3          6             0       -1.036429    0.151447   -0.114269
    4          6             0       -1.830650   -0.946886   -0.026504
    5          1             0        3.048205    0.746342    0.106232
    6          1             0        1.660163    1.599486    0.784060
    7          1             0        1.792299    1.364665   -0.968658
    8          1             0        1.280721   -1.113326   -0.702306
    9          1             0        1.149757   -0.872116    1.104678
   10          1             0       -0.783165    0.575646   -1.082083
   11          1             0       -0.915243    0.816518    0.736478
   12          1             0       -2.067479   -1.551068   -0.898336
   13          1             0       -2.200814   -1.308603    0.929184
 ---------------------------------------------------------------------
 SCF Done:  E(UB+HF-LYP) =  -157.737109188     A.U. after   10 cycles
                          Input orientation:                          
 ---------------------------------------------------------------------
 Center     Atomic     Atomic              Coordinates (Angstroms)
 Number     Number      Type              X           Y           Z
 ---------------------------------------------------------------------
    1          6             0        1.958433    0.886968    0.005219
    2          6             0        1.217341   -0.409065    0.123967
    3          6             0       -1.036794    0.151598   -0.114606
    4          6             0       -1.830682   -0.946853   -0.026645
    5          1             0        3.048427    0.746033    0.104355
    6          1             0        1.661684    1.599138    0.785219
    7          1             0        1.790602    1.365061   -0.967842
    8          1             0        1.280672   -1.113088   -0.701967
    9          1             0        1.150103   -0.872650    1.105005
   10          1             0       -0.782924    0.575410   -1.082423
   11          1             0       -0.916156    0.817385    0.735673
   12          1             0       -2.066722   -1.551634   -0.898273
   13          1             0       -2.201026   -1.308291    0.929080
 ---------------------------------------------------------------------
 SCF Done:  E(UB+HF-LYP) =  -157.737109362     A.U. after   10 cycles
                          Input orientation:                          
 ---------------------------------------------------------------------
 Center     Atomic     Atomic              Coordinates (Angstroms)
 Number     Number      Type              X           Y           Z
 ---------------------------------------------------------------------
    1          6             0        1.958501    0.886881    0.005357
    2          6             0        1.216908   -0.408845    0.124176
    3          6             0       -1.037032    0.151795   -0.114856
    4          6             0       -1.830437   -0.947019   -0.026712
    5          1             0        3.048539    0.745466    0.103439
    6          1             0        1.662848    1.598940    0.785857
    7          1             0        1.790085    1.365386   -0.967414
    8          1             0        1.280490   -1.112985   -0.701665
    9          1             0        1.149705   -0.872498    1.105190
   10          1             0       -0.783223    0.575595   -1.082722
   11          1             0       -0.916662    0.817835    0.735250
   12          1             0       -2.066231   -1.552045   -0.898235
   13          1             0       -2.200531   -1.308492    0.929096
 ---------------------------------------------------------------------
 SCF Done:  E(UB+HF-LYP) =  -157.737109417     A.U. after    9 cycles
    -- Stationary point found.
                          Input orientation:                          
 ---------------------------------------------------------------------
 Center     Atomic     Atomic              Coordinates (Angstroms)
 Number     Number      Type              X           Y           Z
 ---------------------------------------------------------------------
    1          6             0        1.958501    0.886881    0.005357
    2          6             0        1.216908   -0.408845    0.124176
    3          6             0       -1.037032    0.151795   -0.114856
    4          6             0       -1.830437   -0.947019   -0.026712
    5          1             0        3.048539    0.745466    0.103439
    6          1             0        1.662848    1.598940    0.785857
    7          1             0        1.790085    1.365386   -0.967414
    8          1             0        1.280490   -1.112985   -0.701665
    9          1             0        1.149705   -0.872498    1.105190
   10          1             0       -0.783223    0.575595   -1.082722
   11          1             0       -0.916662    0.817835    0.735250
   12          1             0       -2.066231   -1.552045   -0.898235
   13          1             0       -2.200531   -1.308492    0.929096
 ---------------------------------------------------------------------
