Who cares about the title?                                              
Freq      RMP2-FC                                                     CC-pVDZ             
Number of atoms                            I               17
Charge                                     I                0
Multiplicity                               I                1
Number of electrons                        I               42
Number of alpha electrons                  I               21
Number of beta electrons                   I               21
Number of basis functions                  I              130
Number of independant functions            I              130
Number of point charges in /Mol/           I                0
Number of translation vectors              I                0
Info1-9                                    I   N=           9
          27          26           0           0           0         100
           6           2           1
Num ILSW                                   I              100
ILSW                                       I   N=         100
           0           0           0           0           2           0
           0           0           0           0           0     1000000
           0           0           0           0           0           0
           0     1000000           1           0           1           0
           1           1           0           0     1000000           0
           0           0      100000           0          -1           0
           0           0           0           0           0           0
           0           0           0           1           1           0
           0           0           1     1000000     1000000           0
           0           0           0           0           0           0
           0           0           0           0           0           0
           0           0           0           0           0           0
           0           0           0           0           0           0
           0           0           0           0           0           0
           0           0           0           0           0           0
           0           0           0           0           0           0
           0           0           0           0
Number of contracted shells                I               66
Highest angular momentum                   I                2
Largest degree of contraction              I                7
Number of primitive shells                 I              160
Pure/Cartesian d shells                    I                0
Pure/Cartesian f shells                    I                0
Virial Ratio                               R      2.002210981752337E+00
SCF Energy                                 R     -1.963464898731363E+02
MP2 Energy                                 R     -1.970797398786420E+02
Total Energy                               R     -1.970797398786420E+02
Post-SCF wavefunction norm                 R      1.582379624032352E+00
RMS Force                                  R      4.742568700456538E-07
RMS Density                                R      3.687188116334521E-09
Atomic numbers                             I   N=          17
           6           6           6           6           1           1
           1           1           1           1           1           6
           1           1           1           1           1
Nuclear charges                            R   N=          17
  6.00000000E+00  6.00000000E+00  6.00000000E+00  6.00000000E+00  1.00000000E+00
  1.00000000E+00  1.00000000E+00  1.00000000E+00  1.00000000E+00  1.00000000E+00
  1.00000000E+00  6.00000000E+00  1.00000000E+00  1.00000000E+00  1.00000000E+00
  1.00000000E+00  1.00000000E+00
Current cartesian coordinates              R   N=          51
  4.81755820E+00 -3.37508867E-01  1.20375555E-03  2.41746239E+00 -1.95125751E+00
  1.32280829E-03 -1.10926924E-03 -3.63742045E-01  1.16218157E-03 -2.41966014E+00
 -1.95129152E+00  1.27934459E-03  2.41314059E+00 -3.20563126E+00  1.67394209E+00
  2.41317082E+00 -3.20592417E+00 -1.67107348E+00  6.53605625E+00 -1.51580413E+00
  1.32280829E-03  4.88578676E+00  8.91986640E-01 -1.68222098E+00  4.88575842E+00
  8.92283327E-01  1.68441117E+00 -1.13383568E-03  8.93863138E-01  1.67490018E+00
 -1.10360006E-03  8.93570231E-01 -1.67279691E+00 -4.81977863E+00 -3.37576897E-01
  1.11493842E-03 -2.41532133E+00 -3.20595818E+00 -1.67111884E+00 -2.41535157E+00
 -3.20566527E+00  1.67389673E+00 -6.53825967E+00 -1.51589673E+00  1.20186582E-03
 -4.88802609E+00  8.92213407E-01  1.68432235E+00 -4.88799396E+00  8.91918610E-01
 -1.68230979E+00
Int Atom Types                             I   N=          17
           0           0           0           0           0           0
           0           0           0           0           0           0
           0           0           0           0           0
Force Field                                I                0
MM charges                                 R   N=          17
  0.00000000E+00  0.00000000E+00  0.00000000E+00  0.00000000E+00  0.00000000E+00
  0.00000000E+00  0.00000000E+00  0.00000000E+00  0.00000000E+00  0.00000000E+00
  0.00000000E+00  0.00000000E+00  0.00000000E+00  0.00000000E+00  0.00000000E+00
  0.00000000E+00  0.00000000E+00
Integer atomic weights                     I   N=          17
          12          12          12          12           1           1
           1           1           1           1           1          12
           1           1           1           1           1
Real atomic weights                        R   N=          17
  1.20000000E+01  1.20000000E+01  1.20000000E+01  1.20000000E+01  1.00782504E+00
  1.00782504E+00  1.00782504E+00  1.00782504E+00  1.00782504E+00  1.00782504E+00
  1.00782504E+00  1.20000000E+01  1.00782504E+00  1.00782504E+00  1.00782504E+00
  1.00782504E+00  1.00782504E+00
Atom residue info                          I   N=          17
           0           0           0           0           0           0
           0           0           0           0           0           0
           0           0           0           0           0
Atom fragment info                         I   N=          17
           0           0           0           0           0           0
           0           0           0           0           0           0
           0           0           0           0           0
Atom residue num                           I   N=          17
           0           0           0           0           0           0
           0           0           0           0           0           0
           0           0           0           0           0
Nuclear spins                              I   N=          17
           0           0           0           0           1           1
           1           1           1           1           1           0
           1           1           1           1           1
Nuclear ZEff                               R   N=          17
 -3.60000000E+00 -3.60000000E+00 -3.60000000E+00 -3.60000000E+00 -1.00000000E+00
 -1.00000000E+00 -1.00000000E+00 -1.00000000E+00 -1.00000000E+00 -1.00000000E+00
 -1.00000000E+00 -3.60000000E+00 -1.00000000E+00 -1.00000000E+00 -1.00000000E+00
 -1.00000000E+00 -1.00000000E+00
Nuclear QMom                               R   N=          17
  0.00000000E+00  0.00000000E+00  0.00000000E+00  0.00000000E+00  0.00000000E+00
  0.00000000E+00  0.00000000E+00  0.00000000E+00  0.00000000E+00  0.00000000E+00
  0.00000000E+00  0.00000000E+00  0.00000000E+00  0.00000000E+00  0.00000000E+00
  0.00000000E+00  0.00000000E+00
Nuclear GFac                               R   N=          17
  0.00000000E+00  0.00000000E+00  0.00000000E+00  0.00000000E+00  2.79284600E+00
  2.79284600E+00  2.79284600E+00  2.79284600E+00  2.79284600E+00  2.79284600E+00
  2.79284600E+00  0.00000000E+00  2.79284600E+00  2.79284600E+00  2.79284600E+00
  2.79284600E+00  2.79284600E+00
MicOpt                                     I   N=          17
          -1          -1          -1          -1          -1          -1
          -1          -1          -1          -1          -1          -1
          -1          -1          -1          -1          -1
Constraint Structure                       R   N=          51
  4.81755820E+00 -3.37508867E-01  1.20375555E-03  2.41746239E+00 -1.95125751E+00
  1.32280829E-03 -1.10926924E-03 -3.63742045E-01  1.16218157E-03 -2.41966014E+00
 -1.95129152E+00  1.27934459E-03  2.41314059E+00 -3.20563126E+00  1.67394209E+00
  2.41317082E+00 -3.20592417E+00 -1.67107348E+00  6.53605625E+00 -1.51580413E+00
  1.32280829E-03  4.88578676E+00  8.91986640E-01 -1.68222098E+00  4.88575842E+00
  8.92283327E-01  1.68441117E+00 -1.13383568E-03  8.93863138E-01  1.67490018E+00
 -1.10360006E-03  8.93570231E-01 -1.67279691E+00 -4.81977863E+00 -3.37576897E-01
  1.11493842E-03 -2.41532133E+00 -3.20595818E+00 -1.67111884E+00 -2.41535157E+00
 -3.20566527E+00  1.67389673E+00 -6.53825967E+00 -1.51589673E+00  1.20186582E-03
 -4.88802609E+00  8.92213407E-01  1.68432235E+00 -4.88799396E+00  8.91918610E-01
 -1.68230979E+00
ONIOM Charges                              I   N=          16
           0           0           0           0           0           0
           0           0           0           0           0           0
           0           0           0           0
ONIOM Multiplicities                       I   N=          16
           1           0           0           0           0           0
           0           0           0           0           0           0
           0           0           0           0
Atom Layers                                I   N=          17
           1           1           1           1           1           1
           1           1           1           1           1           1
           1           1           1           1           1
Atom Modifiers                             I   N=          17
           0           0           0           0           0           0
           0           0           0           0           0           0
           0           0           0           0           0
Int Atom Modified Types                    I   N=          17
           0           0           0           0           0           0
           0           0           0           0           0           0
           0           0           0           0           0
Link Atoms                                 I   N=          17
           0           0           0           0           0           0
           0           0           0           0           0           0
           0           0           0           0           0
Atom Modified MM Charges                   R   N=          17
  0.00000000E+00  0.00000000E+00  0.00000000E+00  0.00000000E+00  0.00000000E+00
  0.00000000E+00  0.00000000E+00  0.00000000E+00  0.00000000E+00  0.00000000E+00
  0.00000000E+00  0.00000000E+00  0.00000000E+00  0.00000000E+00  0.00000000E+00
  0.00000000E+00  0.00000000E+00
Link Distances                             R   N=          68
  0.00000000E+00  0.00000000E+00  0.00000000E+00  0.00000000E+00  0.00000000E+00
  0.00000000E+00  0.00000000E+00  0.00000000E+00  0.00000000E+00  0.00000000E+00
  0.00000000E+00  0.00000000E+00  0.00000000E+00  0.00000000E+00  0.00000000E+00
  0.00000000E+00  0.00000000E+00  0.00000000E+00  0.00000000E+00  0.00000000E+00
  0.00000000E+00  0.00000000E+00  0.00000000E+00  0.00000000E+00  0.00000000E+00
  0.00000000E+00  0.00000000E+00  0.00000000E+00  0.00000000E+00  0.00000000E+00
  0.00000000E+00  0.00000000E+00  0.00000000E+00  0.00000000E+00  0.00000000E+00
  0.00000000E+00  0.00000000E+00  0.00000000E+00  0.00000000E+00  0.00000000E+00
  0.00000000E+00  0.00000000E+00  0.00000000E+00  0.00000000E+00  0.00000000E+00
  0.00000000E+00  0.00000000E+00  0.00000000E+00  0.00000000E+00  0.00000000E+00
  0.00000000E+00  0.00000000E+00  0.00000000E+00  0.00000000E+00  0.00000000E+00
  0.00000000E+00  0.00000000E+00  0.00000000E+00  0.00000000E+00  0.00000000E+00
  0.00000000E+00  0.00000000E+00  0.00000000E+00  0.00000000E+00  0.00000000E+00
  0.00000000E+00  0.00000000E+00  0.00000000E+00
MxBond                                     I                4
NBond                                      I   N=          17
           4           4           4           4           1           1
           1           1           1           1           1           4
           1           1           1           1           1
IBond                                      I   N=          68
           2           7           8           9           1           3
           5           6           2           4          10          11
           3          12          13          14           2           0
           0           0           2           0           0           0
           1           0           0           0           1           0
           0           0           1           0           0           0
           3           0           0           0           3           0
           0           0           4          15          16          17
           4           0           0           0           4           0
           0           0          12           0           0           0
          12           0           0           0          12           0
           0           0
RBond                                      R   N=          68
  1.00000000E+00  1.00000000E+00  1.00000000E+00  1.00000000E+00  1.00000000E+00
  1.00000000E+00  1.00000000E+00  1.00000000E+00  1.00000000E+00  1.00000000E+00
  1.00000000E+00  1.00000000E+00  1.00000000E+00  1.00000000E+00  1.00000000E+00
  1.00000000E+00  1.00000000E+00  0.00000000E+00  0.00000000E+00  0.00000000E+00
  1.00000000E+00  0.00000000E+00  0.00000000E+00  0.00000000E+00  1.00000000E+00
  0.00000000E+00  0.00000000E+00  0.00000000E+00  1.00000000E+00  0.00000000E+00
  0.00000000E+00  0.00000000E+00  1.00000000E+00  0.00000000E+00  0.00000000E+00
  0.00000000E+00  1.00000000E+00  0.00000000E+00  0.00000000E+00  0.00000000E+00
  1.00000000E+00  0.00000000E+00  0.00000000E+00  0.00000000E+00  1.00000000E+00
  1.00000000E+00  1.00000000E+00  1.00000000E+00  1.00000000E+00  0.00000000E+00
  0.00000000E+00  0.00000000E+00  1.00000000E+00  0.00000000E+00  0.00000000E+00
  0.00000000E+00  1.00000000E+00  0.00000000E+00  0.00000000E+00  0.00000000E+00
  1.00000000E+00  0.00000000E+00  0.00000000E+00  0.00000000E+00  1.00000000E+00
  0.00000000E+00  0.00000000E+00  0.00000000E+00
Shell types                                I   N=          66
           0           0           0           1           1          -2
           0           0           0           1           1          -2
           0           0           0           1           1          -2
           0           0           0           1           1          -2
           0           0           1           0           0           1
           0           0           1           0           0           1
           0           0           1           0           0           1
           0           0           1           0           0           0
           1           1          -2           0           0           1
           0           0           1           0           0           1
           0           0           1           0           0           1
Number of primitives per shell             I   N=          66
           7           7           1           3           1           1
           7           7           1           3           1           1
           7           7           1           3           1           1
           7           7           1           3           1           1
           3           1           1           3           1           1
           3           1           1           3           1           1
           3           1           1           3           1           1
           3           1           1           7           7           1
           3           1           1           3           1           1
           3           1           1           3           1           1
           3           1           1           3           1           1
Shell to atom map                          I   N=          66
           1           1           1           1           1           1
           2           2           2           2           2           2
           3           3           3           3           3           3
           4           4           4           4           4           4
           5           5           5           6           6           6
           7           7           7           8           8           8
           9           9           9          10          10          10
          11          11          11          12          12          12
          12          12          12          13          13          13
          14          14          14          15          15          15
          16          16          16          17          17          17
Primitive exponents                        R   N=         160
  6.66500000E+03  1.00000000E+03  2.28000000E+02  6.47100000E+01  2.10600000E+01
  7.49500000E+00  2.79700000E+00  6.66500000E+03  1.00000000E+03  6.47100000E+01
  2.10600000E+01  7.49500000E+00  2.79700000E+00  5.21500000E-01  1.59600000E-01
  9.43900000E+00  2.00200000E+00  5.45600000E-01  1.51700000E-01  5.50000000E-01
  6.66500000E+03  1.00000000E+03  2.28000000E+02  6.47100000E+01  2.10600000E+01
  7.49500000E+00  2.79700000E+00  6.66500000E+03  1.00000000E+03  6.47100000E+01
  2.10600000E+01  7.49500000E+00  2.79700000E+00  5.21500000E-01  1.59600000E-01
  9.43900000E+00  2.00200000E+00  5.45600000E-01  1.51700000E-01  5.50000000E-01
  6.66500000E+03  1.00000000E+03  2.28000000E+02  6.47100000E+01  2.10600000E+01
  7.49500000E+00  2.79700000E+00  6.66500000E+03  1.00000000E+03  6.47100000E+01
  2.10600000E+01  7.49500000E+00  2.79700000E+00  5.21500000E-01  1.59600000E-01
  9.43900000E+00  2.00200000E+00  5.45600000E-01  1.51700000E-01  5.50000000E-01
  6.66500000E+03  1.00000000E+03  2.28000000E+02  6.47100000E+01  2.10600000E+01
  7.49500000E+00  2.79700000E+00  6.66500000E+03  1.00000000E+03  6.47100000E+01
  2.10600000E+01  7.49500000E+00  2.79700000E+00  5.21500000E-01  1.59600000E-01
  9.43900000E+00  2.00200000E+00  5.45600000E-01  1.51700000E-01  5.50000000E-01
  1.30100000E+01  1.96200000E+00  4.44600000E-01  1.22000000E-01  7.27000000E-01
  1.30100000E+01  1.96200000E+00  4.44600000E-01  1.22000000E-01  7.27000000E-01
  1.30100000E+01  1.96200000E+00  4.44600000E-01  1.22000000E-01  7.27000000E-01
  1.30100000E+01  1.96200000E+00  4.44600000E-01  1.22000000E-01  7.27000000E-01
  1.30100000E+01  1.96200000E+00  4.44600000E-01  1.22000000E-01  7.27000000E-01
  1.30100000E+01  1.96200000E+00  4.44600000E-01  1.22000000E-01  7.27000000E-01
  1.30100000E+01  1.96200000E+00  4.44600000E-01  1.22000000E-01  7.27000000E-01
  6.66500000E+03  1.00000000E+03  2.28000000E+02  6.47100000E+01  2.10600000E+01
  7.49500000E+00  2.79700000E+00  6.66500000E+03  1.00000000E+03  6.47100000E+01
  2.10600000E+01  7.49500000E+00  2.79700000E+00  5.21500000E-01  1.59600000E-01
  9.43900000E+00  2.00200000E+00  5.45600000E-01  1.51700000E-01  5.50000000E-01
  1.30100000E+01  1.96200000E+00  4.44600000E-01  1.22000000E-01  7.27000000E-01
  1.30100000E+01  1.96200000E+00  4.44600000E-01  1.22000000E-01  7.27000000E-01
  1.30100000E+01  1.96200000E+00  4.44600000E-01  1.22000000E-01  7.27000000E-01
  1.30100000E+01  1.96200000E+00  4.44600000E-01  1.22000000E-01  7.27000000E-01
  1.30100000E+01  1.96200000E+00  4.44600000E-01  1.22000000E-01  7.27000000E-01
Contraction coefficients                   R   N=         160
  6.93516317E-04  5.34150243E-03  2.71366714E-02  1.01992385E-01  2.75508636E-01
  4.51086433E-01  2.87565745E-01  6.28313219E-07 -5.48480000E-05 -3.63137064E-03
 -1.17983699E-02 -1.10909885E-01 -1.34742247E-01  1.10175849E+00  1.00000000E+00
  5.69792516E-02  3.13207212E-01  7.60376742E-01  1.00000000E+00  1.00000000E+00
  6.93516317E-04  5.34150243E-03  2.71366714E-02  1.01992385E-01  2.75508636E-01
  4.51086433E-01  2.87565745E-01  6.28313219E-07 -5.48480000E-05 -3.63137064E-03
 -1.17983699E-02 -1.10909885E-01 -1.34742247E-01  1.10175849E+00  1.00000000E+00
  5.69792516E-02  3.13207212E-01  7.60376742E-01  1.00000000E+00  1.00000000E+00
  6.93516317E-04  5.34150243E-03  2.71366714E-02  1.01992385E-01  2.75508636E-01
  4.51086433E-01  2.87565745E-01  6.28313219E-07 -5.48480000E-05 -3.63137064E-03
 -1.17983699E-02 -1.10909885E-01 -1.34742247E-01  1.10175849E+00  1.00000000E+00
  5.69792516E-02  3.13207212E-01  7.60376742E-01  1.00000000E+00  1.00000000E+00
  6.93516317E-04  5.34150243E-03  2.71366714E-02  1.01992385E-01  2.75508636E-01
  4.51086433E-01  2.87565745E-01  6.28313219E-07 -5.48480000E-05 -3.63137064E-03
 -1.17983699E-02 -1.10909885E-01 -1.34742247E-01  1.10175849E+00  1.00000000E+00
  5.69792516E-02  3.13207212E-01  7.60376742E-01  1.00000000E+00  1.00000000E+00
  3.34987264E-02  2.34800801E-01  8.13682958E-01  1.00000000E+00  1.00000000E+00
  3.34987264E-02  2.34800801E-01  8.13682958E-01  1.00000000E+00  1.00000000E+00
  3.34987264E-02  2.34800801E-01  8.13682958E-01  1.00000000E+00  1.00000000E+00
  3.34987264E-02  2.34800801E-01  8.13682958E-01  1.00000000E+00  1.00000000E+00
  3.34987264E-02  2.34800801E-01  8.13682958E-01  1.00000000E+00  1.00000000E+00
  3.34987264E-02  2.34800801E-01  8.13682958E-01  1.00000000E+00  1.00000000E+00
  3.34987264E-02  2.34800801E-01  8.13682958E-01  1.00000000E+00  1.00000000E+00
  6.93516317E-04  5.34150243E-03  2.71366714E-02  1.01992385E-01  2.75508636E-01
  4.51086433E-01  2.87565745E-01  6.28313219E-07 -5.48480000E-05 -3.63137064E-03
 -1.17983699E-02 -1.10909885E-01 -1.34742247E-01  1.10175849E+00  1.00000000E+00
  5.69792516E-02  3.13207212E-01  7.60376742E-01  1.00000000E+00  1.00000000E+00
  3.34987264E-02  2.34800801E-01  8.13682958E-01  1.00000000E+00  1.00000000E+00
  3.34987264E-02  2.34800801E-01  8.13682958E-01  1.00000000E+00  1.00000000E+00
  3.34987264E-02  2.34800801E-01  8.13682958E-01  1.00000000E+00  1.00000000E+00
  3.34987264E-02  2.34800801E-01  8.13682958E-01  1.00000000E+00  1.00000000E+00
  3.34987264E-02  2.34800801E-01  8.13682958E-01  1.00000000E+00  1.00000000E+00
Coordinates of each shell                  R   N=         198
  4.81755820E+00 -3.37508867E-01  1.20375555E-03  4.81755820E+00 -3.37508867E-01
  1.20375555E-03  4.81755820E+00 -3.37508867E-01  1.20375555E-03  4.81755820E+00
 -3.37508867E-01  1.20375555E-03  4.81755820E+00 -3.37508867E-01  1.20375555E-03
  4.81755820E+00 -3.37508867E-01  1.20375555E-03  2.41746239E+00 -1.95125751E+00
  1.32280829E-03  2.41746239E+00 -1.95125751E+00  1.32280829E-03  2.41746239E+00
 -1.95125751E+00  1.32280829E-03  2.41746239E+00 -1.95125751E+00  1.32280829E-03
  2.41746239E+00 -1.95125751E+00  1.32280829E-03  2.41746239E+00 -1.95125751E+00
  1.32280829E-03 -1.10926924E-03 -3.63742045E-01  1.16218157E-03 -1.10926924E-03
 -3.63742045E-01  1.16218157E-03 -1.10926924E-03 -3.63742045E-01  1.16218157E-03
 -1.10926924E-03 -3.63742045E-01  1.16218157E-03 -1.10926924E-03 -3.63742045E-01
  1.16218157E-03 -1.10926924E-03 -3.63742045E-01  1.16218157E-03 -2.41966014E+00
 -1.95129152E+00  1.27934459E-03 -2.41966014E+00 -1.95129152E+00  1.27934459E-03
 -2.41966014E+00 -1.95129152E+00  1.27934459E-03 -2.41966014E+00 -1.95129152E+00
  1.27934459E-03 -2.41966014E+00 -1.95129152E+00  1.27934459E-03 -2.41966014E+00
 -1.95129152E+00  1.27934459E-03  2.41314059E+00 -3.20563126E+00  1.67394209E+00
  2.41314059E+00 -3.20563126E+00  1.67394209E+00  2.41314059E+00 -3.20563126E+00
  1.67394209E+00  2.41317082E+00 -3.20592417E+00 -1.67107348E+00  2.41317082E+00
 -3.20592417E+00 -1.67107348E+00  2.41317082E+00 -3.20592417E+00 -1.67107348E+00
  6.53605625E+00 -1.51580413E+00  1.32280829E-03  6.53605625E+00 -1.51580413E+00
  1.32280829E-03  6.53605625E+00 -1.51580413E+00  1.32280829E-03  4.88578676E+00
  8.91986640E-01 -1.68222098E+00  4.88578676E+00  8.91986640E-01 -1.68222098E+00
  4.88578676E+00  8.91986640E-01 -1.68222098E+00  4.88575842E+00  8.92283327E-01
  1.68441117E+00  4.88575842E+00  8.92283327E-01  1.68441117E+00  4.88575842E+00
  8.92283327E-01  1.68441117E+00 -1.13383568E-03  8.93863138E-01  1.67490018E+00
 -1.13383568E-03  8.93863138E-01  1.67490018E+00 -1.13383568E-03  8.93863138E-01
  1.67490018E+00 -1.10360006E-03  8.93570231E-01 -1.67279691E+00 -1.10360006E-03
  8.93570231E-01 -1.67279691E+00 -1.10360006E-03  8.93570231E-01 -1.67279691E+00
 -4.81977863E+00 -3.37576897E-01  1.11493842E-03 -4.81977863E+00 -3.37576897E-01
  1.11493842E-03 -4.81977863E+00 -3.37576897E-01  1.11493842E-03 -4.81977863E+00
 -3.37576897E-01  1.11493842E-03 -4.81977863E+00 -3.37576897E-01  1.11493842E-03
 -4.81977863E+00 -3.37576897E-01  1.11493842E-03 -2.41532133E+00 -3.20595818E+00
 -1.67111884E+00 -2.41532133E+00 -3.20595818E+00 -1.67111884E+00 -2.41532133E+00
 -3.20595818E+00 -1.67111884E+00 -2.41535157E+00 -3.20566527E+00  1.67389673E+00
 -2.41535157E+00 -3.20566527E+00  1.67389673E+00 -2.41535157E+00 -3.20566527E+00
  1.67389673E+00 -6.53825967E+00 -1.51589673E+00  1.20186582E-03 -6.53825967E+00
 -1.51589673E+00  1.20186582E-03 -6.53825967E+00 -1.51589673E+00  1.20186582E-03
 -4.88802609E+00  8.92213407E-01  1.68432235E+00 -4.88802609E+00  8.92213407E-01
  1.68432235E+00 -4.88802609E+00  8.92213407E-01  1.68432235E+00 -4.88799396E+00
  8.91918610E-01 -1.68230979E+00 -4.88799396E+00  8.91918610E-01 -1.68230979E+00
 -4.88799396E+00  8.91918610E-01 -1.68230979E+00
Alpha Orbital Energies                     R   N=         130
 -1.12234165E+01 -1.12233555E+01 -1.12209851E+01 -1.12204149E+01 -1.12204085E+01
 -1.07715751E+00 -1.01177084E+00 -9.15655212E-01 -8.16322246E-01 -7.80277125E-01
 -6.41659655E-01 -5.94096167E-01 -5.88027145E-01 -5.51152529E-01 -5.43626662E-01
 -5.21822441E-01 -4.91581939E-01 -4.72488553E-01 -4.59319087E-01 -4.55718802E-01
 -4.46243731E-01  1.83026042E-01  1.96344374E-01  2.12892310E-01  2.13862215E-01
  2.41604703E-01  2.64511083E-01  2.68403829E-01  2.81580853E-01  2.89246299E-01
  2.91981762E-01  3.02214012E-01  3.23051899E-01  3.77570724E-01  3.90600924E-01
  4.12044913E-01  4.43234495E-01  5.86884235E-01  5.88654825E-01  5.96720234E-01
  6.04314891E-01  6.13879339E-01  6.25509574E-01  7.02203609E-01  7.54371734E-01
  7.76166442E-01  8.27940280E-01  8.75327722E-01  8.79996199E-01  8.84943520E-01
  8.88801884E-01  8.89338739E-01  8.93619076E-01  8.99040444E-01  8.99112340E-01
  9.10925630E-01  9.12028266E-01  9.16585442E-01  9.27700223E-01  9.43302798E-01
  9.61460027E-01  9.67405609E-01  9.99997285E-01  1.00970038E+00  1.12718851E+00
  1.13003547E+00  1.16809379E+00  1.29156027E+00  1.41437866E+00  1.45819163E+00
  1.45929209E+00  1.47396494E+00  1.47761283E+00  1.47842313E+00  1.56272577E+00
  1.59541228E+00  1.62780966E+00  1.68856546E+00  1.68863920E+00  1.72023395E+00
  1.80746331E+00  1.86869222E+00  1.87623531E+00  1.89837809E+00  1.90070267E+00
  1.90484859E+00  1.91429806E+00  1.91516141E+00  1.92524538E+00  1.93659014E+00
  1.95941371E+00  1.96147259E+00  1.97925468E+00  1.98655485E+00  1.99037730E+00
  2.01114921E+00  2.02723003E+00  2.03505831E+00  2.03782103E+00  2.05645394E+00
  2.08097648E+00  2.15189608E+00  2.17964508E+00  2.22720122E+00  2.27534246E+00
  2.28408959E+00  2.36426978E+00  2.37089812E+00  2.37165577E+00  2.46640107E+00
  2.48721723E+00  2.49674885E+00  2.51119412E+00  2.55822985E+00  2.57602112E+00
  2.62949551E+00  2.63328965E+00  2.63735972E+00  2.70643659E+00  2.74511093E+00
  2.74584173E+00  2.77213514E+00  2.82572356E+00  2.83635310E+00  2.88471032E+00
  2.91560802E+00  2.93249164E+00  2.98220147E+00  3.08024847E+00  3.08452838E+00
Alpha MO coefficients                      R   N=       16900
  6.80116490E-02  1.07624888E-03  1.84902742E-03 -4.57467356E-05 -5.05565150E-05
  4.08150330E-09 -1.01489848E-03 -4.06971784E-04  2.70802578E-08  6.10171999E-05
  1.28336632E-08  6.56198174E-09 -1.57320945E-05 -1.60192598E-04  6.91229269E-01
  1.30370807E-02 -8.01811742E-03  7.82807923E-05 -1.24321121E-04  1.11390009E-08
 -4.23302987E-05 -1.15362397E-03  9.99977480E-08  1.86540631E-04 -1.12662242E-08
  1.73074629E-08 -1.46622083E-04  7.94194217E-05  1.73170923E-01  3.02147571E-03
  2.65165351E-03 -1.81264317E-08 -4.30469049E-05  3.73770684E-09 -2.30711614E-07
 -1.15149701E-03  1.00075688E-07  1.34773423E-04 -2.47921355E-09  1.77915208E-08
 -3.09737988E-05 -1.92630163E-08  6.91387683E-01  1.30401029E-02 -8.01993806E-03
 -7.82762528E-05 -1.24353475E-04  1.00629184E-08  4.22046961E-05 -1.15375612E-03
  1.03244293E-07  1.86588832E-04  2.74649069E-09  1.43968555E-08 -1.46650395E-04
 -7.94221289E-05  8.70433802E-05  7.10021151E-04  2.00869523E-05 -1.13612378E-04
  2.92689063E-04  8.70412082E-05  7.10023227E-04  2.00923225E-05 -1.13663770E-04
 -2.92668610E-04 -1.51940606E-04  1.43722520E-04  4.92431363E-05 -2.90681796E-05
  2.96683082E-09 -1.46488774E-04  1.14158947E-04 -3.00533675E-05 -2.19378729E-05
 -3.05818360E-05 -1.46489369E-04  1.14158082E-04 -3.00531685E-05 -2.19320840E-05
  3.05849776E-05 -1.49697766E-04  4.53841402E-04 -6.74411579E-09 -2.67237170E-05
  4.17810049E-05 -1.49697806E-04  4.53840403E-04 -6.06547165E-09 -2.67309297E-05
 -4.17764522E-05  6.80269374E-02  1.07654841E-03  1.84918394E-03  4.57668690E-05
 -5.05642963E-05  4.90591288E-09  1.01495305E-03 -4.07049077E-04  4.49686280E-08
  6.10365162E-05 -1.51686196E-08  9.45756509E-09 -1.57477924E-05  1.60227824E-04
  8.70775206E-05  7.10251962E-04 -2.00738673E-05 -1.13699236E-04 -2.92728970E-04
  8.70764376E-05  7.10251576E-04 -2.00792703E-05 -1.13648087E-04  2.92748473E-04