 vasp.4.6.34 5Dec07 gamma-only
 executed on             LinuxIFC date 2009.01.17  19:52:30
 running on    4 nodes
 distr:  one band on    2 nodes,    2 groups


--------------------------------------------------------------------------------------------------------


 INCAR:
 POTCAR:   PAW_GGA Si 05Jan2001                   
 POTCAR:   PAW_GGA O 05Jan2001                    
 POTCAR:   PAW_GGA Al 05Jan2001                   
 POTCAR:   PAW_GGA C 05Jan2001                    
 POTCAR:   PAW_GGA H 07Jul1998                    
 POTCAR:   PAW_GGA Si 05Jan2001                   
   VRHFIN =Si: s2p2                                                             
   LEXCH  = 91                                                                  
   EATOM  =   103.3076 eV,    7.5929 Ry                                         
                                                                                
   TITEL  = PAW_GGA Si 05Jan2001                                                
   LULTRA =        F    use ultrasoft PP ?                                      
   IUNSCR =        1    unscreen: 0-lin 1-nonlin 2-no                           
   RPACOR =    1.500    partial core radius                                     
   POMASS =   28.085; ZVAL   =    4.000    mass and valenz                      
   RCORE  =    1.900    outmost cutoff radius                                   
   RWIGS  =    2.480; RWIGS  =    1.312    wigner-seitz radius (au A)           
   ENMAX  =  245.435; ENMIN  =  184.076 eV                                      
   ICORE  =        2    local potential                                         
   LCOR   =        T    correct aug charges                                     
   LPAW   =        T    paw PP                                                  
   EAUG   =  322.069                                                            
   DEXC   =    -.001                                                            
   RMAX   =    2.943    core radius for proj-oper                               
   RAUG   =    1.300    factor for augmentation sphere                          
   RDEP   =    1.993    core radius for depl-charge                             
   QCUT   =   -4.247; QGAM   =    8.494    optimization parameters              
                                                                                
   Description                                                                  
     l     E      TYP  RCUT    TYP  RCUT                                        
     0   .000     23  1.900                                                     
     0   .000     23  1.900                                                     
     1   .000     23  1.900                                                     
     1   .000     23  1.900                                                     
     2   .000      7  1.900                                                     
  local pseudopotential read in
  partial core-charges read in
  atomic valenz-charges read in
  non local Contribution for L=           0  read in
    real space projection operators read in
  non local Contribution for L=           0  read in
    real space projection operators read in
  non local Contribution for L=           1  read in
    real space projection operators read in
  non local Contribution for L=           1  read in
    real space projection operators read in
    PAW grid and wavefunctions read in
 
   number of l-projection  operators is LMAX  =           4
   number of lm-projection operators is LMMAX =           8
 
 POTCAR:   PAW_GGA O 05Jan2001                    
   VRHFIN =O: s2p4                                                              
   LEXCH  = 91                                                                  
   EATOM  =   433.0277 eV,   31.8266 Ry                                         
                                                                                
   TITEL  = PAW_GGA O 05Jan2001                                                 
   LULTRA =        F    use ultrasoft PP ?                                      
   IUNSCR =        0    unscreen: 0-lin 1-nonlin 2-no                           
   RPACOR =     .000    partial core radius                                     
   POMASS =   16.000; ZVAL   =    6.000    mass and valenz                      
   RCORE  =    1.520    outmost cutoff radius                                   
   RWIGS  =    1.550; RWIGS  =     .820    wigner-seitz radius (au A)           
   ENMAX  =  400.000; ENMIN  =  300.000 eV                                      
   ICORE  =        2    local potential                                         
   LCOR   =        T    correct aug charges                                     
   LPAW   =        T    paw PP                                                  
   EAUG   =  605.392                                                            
   DEXC   =     .000                                                            
   RMAX   =    2.264    core radius for proj-oper                               
   RAUG   =    1.300    factor for augmentation sphere                          
   RDEP   =    1.550    radius for radial grids                                 
   QCUT   =   -5.520; QGAM   =   11.040    optimization parameters              
                                                                                
   Description                                                                  
     l     E      TYP  RCUT    TYP  RCUT                                        
     0   .000     23  1.200                                                     
     0  -.700     23  1.200                                                     
     1   .000     23  1.520                                                     
     1   .600     23  1.520                                                     
     2   .000      7  1.500                                                     
  local pseudopotential read in
  atomic valenz-charges read in
  non local Contribution for L=           0  read in
    real space projection operators read in
  non local Contribution for L=           0  read in
    real space projection operators read in
  non local Contribution for L=           1  read in
    real space projection operators read in
  non local Contribution for L=           1  read in
    real space projection operators read in
    PAW grid and wavefunctions read in
 
   number of l-projection  operators is LMAX  =           4
   number of lm-projection operators is LMMAX =           8
 
 POTCAR:   PAW_GGA Al 05Jan2001                   
   VRHFIN =Al: s2p1                                                             
   LEXCH  = 91                                                                  
   EATOM  =    53.6910 eV,    3.9462 Ry                                         
                                                                                
   TITEL  = PAW_GGA Al 05Jan2001                                                
   LULTRA =        F    use ultrasoft PP ?                                      
   IUNSCR =        1    unscreen: 0-lin 1-nonlin 2-no                           
   RPACOR =    1.500    partial core radius                                     
   POMASS =   26.982; ZVAL   =    3.000    mass and valenz                      
   RCORE  =    1.900    outmost cutoff radius                                   
   RWIGS  =    2.650; RWIGS  =    1.402    wigner-seitz radius (au A)           
   ENMAX  =  240.437; ENMIN  =  180.327 eV                                      
   ICORE  =        2    local potential                                         
   LCOR   =        T    correct aug charges                                     
   LPAW   =        T    paw PP                                                  
   EAUG   =  291.052                                                            
   DEXC   =    -.017                                                            
   RMAX   =    2.974    core radius for proj-oper                               
   RAUG   =    1.300    factor for augmentation sphere                          
   RDEP   =    1.966    core radius for depl-charge                             
   QCUT   =   -4.204; QGAM   =    8.408    optimization parameters              
                                                                                
   Description                                                                  
     l     E      TYP  RCUT    TYP  RCUT                                        
     0   .000     23  1.900                                                     
     0   .000     23  1.900                                                     
     1   .000     23  1.900                                                     
     1  1.000     23  1.900                                                     
     2   .000      7  1.900                                                     
  local pseudopotential read in
  partial core-charges read in
  atomic valenz-charges read in
  non local Contribution for L=           0  read in
    real space projection operators read in
  non local Contribution for L=           0  read in
    real space projection operators read in
  non local Contribution for L=           1  read in
    real space projection operators read in
  non local Contribution for L=           1  read in
    real space projection operators read in
    PAW grid and wavefunctions read in
 
   number of l-projection  operators is LMAX  =           4
   number of lm-projection operators is LMMAX =           8
 
 POTCAR:   PAW_GGA C 05Jan2001                    
   VRHFIN =C: s2p2                                                              
   LEXCH  = 91                                                                  
   EATOM  =   147.4688 eV,   10.8386 Ry                                         
                                                                                
   TITEL  = PAW_GGA C 05Jan2001                                                 
   LULTRA =        F    use ultrasoft PP ?                                      
   IUNSCR =        0    unscreen: 0-lin 1-nonlin 2-no                           
   RPACOR =     .000    partial core radius                                     
   POMASS =   12.011; ZVAL   =    4.000    mass and valenz                      
   RCORE  =    1.500    outmost cutoff radius                                   
   RWIGS  =    1.630; RWIGS  =     .863    wigner-seitz radius (au A)           
   ENMAX  =  400.000; ENMIN  =  300.000 eV                                      
   ICORE  =        2    local potential                                         
   LCOR   =        T    correct aug charges                                     
   LPAW   =        T    paw PP                                                  
   EAUG   =  644.873                                                            
   DEXC   =     .000                                                            
   RMAX   =    2.266    core radius for proj-oper                               
   RAUG   =    1.300    factor for augmentation sphere                          
   RDEP   =    1.501    radius for radial grids                                 
   RDEPT  =    1.300    core radius for aug-charge                              
   QCUT   =   -5.516; QGAM   =   11.033    optimization parameters              
                                                                                
   Description                                                                  
     l     E      TYP  RCUT    TYP  RCUT                                        
     0   .000     23  1.200                                                     
     0   .000     23  1.200                                                     
     1   .000     23  1.500                                                     
     1  2.500     23  1.500                                                     
     2   .000      7  1.500                                                     
  local pseudopotential read in
  atomic valenz-charges read in
  non local Contribution for L=           0  read in
    real space projection operators read in
  non local Contribution for L=           0  read in
    real space projection operators read in
  non local Contribution for L=           1  read in
    real space projection operators read in
  non local Contribution for L=           1  read in
    real space projection operators read in
    PAW grid and wavefunctions read in
 
   number of l-projection  operators is LMAX  =           4
   number of lm-projection operators is LMMAX =           8
 
 POTCAR:   PAW_GGA H 07Jul1998                    
   VRHFIN =H: ultrasoft test                                                    
   LEXCH  = 91                                                                  
   EATOM  =    12.5313 eV,     .9210 Ry                                         
                                                                                
   TITEL  = PAW_GGA H 07Jul1998                                                 
   LULTRA =        F    use ultrasoft PP ?                                      
   IUNSCR =        0    unscreen: 0-lin 1-nonlin 2-no                           
   RPACOR =     .000    partial core radius                                     
   POMASS =    1.000; ZVAL   =    1.000    mass and valenz                      
   RCORE  =    1.100    outmost cutoff radius                                   
   RWIGS  =     .700; RWIGS  =     .370    wigner-seitz radius (au A)           
   ENMAX  =  250.000; ENMIN  =  200.000 eV                                      
   RCLOC  =     .701    cutoff for local pot                                    
   LCOR   =        T    correct aug charges                                     
   LPAW   =        T    paw PP                                                  
   EAUG   =  400.000                                                            
   RMAX   =    2.174    core radius for proj-oper                               
   RAUG   =    1.200    factor for augmentation sphere                          
   RDEP   =    1.112    core radius for depl-charge                             
   QCUT   =   -5.749; QGAM   =   11.498    optimization parameters              
                                                                                
   Description                                                                  
     l     E      TYP  RCUT    TYP  RCUT                                        
     0   .000     23  1.100                                                     
     0   .500     23  1.100                                                     
     1  -.300     23  1.100                                                     
  local pseudopotential read in
  atomic valenz-charges read in
  non local Contribution for L=           0  read in
    real space projection operators read in
  non local Contribution for L=           0  read in
    real space projection operators read in
  non local Contribution for L=           1  read in
    real space projection operators read in
    PAW grid and wavefunctions read in
 
   number of l-projection  operators is LMAX  =           3
   number of lm-projection operators is LMMAX =           5
 
 Optimization of the real space projectors (new method)

 maximal supplied QI-value         = 19.84
 optimisation between [QCUT,QGAM] = [ 10.12, 20.24] = [ 28.68,114.70] Ry 
 Optimized for a Real-space Cutoff    1.39 Angstroem

   l    n(q)    QCUT    max X(q) W(low)/X(q) W(high)/X(q)  e(spline) 
   0      8    10.119     8.672    0.16E-04    0.81E-05    0.60E-08
   0      8    10.119   105.657    0.54E-04    0.14E-03    0.57E-07
   1      8    10.119     5.870    0.14E-04    0.23E-05    0.22E-07
   1      8    10.119    73.136    0.23E-03    0.17E-03    0.19E-06
 Optimization of the real space projectors (new method)

 maximal supplied QI-value         = 24.76
 optimisation between [QCUT,QGAM] = [ 10.15, 20.30] = [ 28.85,115.39] Ry 
 Optimized for a Real-space Cutoff    1.47 Angstroem

   l    n(q)    QCUT    max X(q) W(low)/X(q) W(high)/X(q)  e(spline) 
   0      9    10.150     4.138    0.36E-04    0.15E-04    0.11E-06
   0      9    10.150     8.500    0.24E-03    0.24E-03    0.39E-06
   1      8    10.150     2.482    0.30E-04    0.39E-04    0.58E-07
   1      8    10.150     3.878    0.13E-03    0.20E-03    0.29E-06
 Optimization of the real space projectors (new method)

 maximal supplied QI-value         = 19.84
 optimisation between [QCUT,QGAM] = [ 10.12, 20.24] = [ 28.68,114.70] Ry 
 Optimized for a Real-space Cutoff    1.39 Angstroem

   l    n(q)    QCUT    max X(q) W(low)/X(q) W(high)/X(q)  e(spline) 
   0      8    10.119    13.323    0.16E-04    0.94E-05    0.66E-08
   0      8    10.119   140.353    0.36E-04    0.12E-03    0.54E-07
   1      8    10.119     9.534    0.19E-04    0.18E-05    0.21E-07
   1      8    10.119    52.629    0.18E-03    0.13E-03    0.18E-06
 Optimization of the real space projectors (new method)

 maximal supplied QI-value         = 25.13
 optimisation between [QCUT,QGAM] = [ 10.05, 20.36] = [ 28.30,116.06] Ry 
 Optimized for a Real-space Cutoff    1.39 Angstroem

   l    n(q)    QCUT    max X(q) W(low)/X(q) W(high)/X(q)  e(spline) 
   0      8    10.053     5.568    0.33E-04    0.10E-04    0.74E-07
   0      8    10.053    69.244    0.23E-03    0.30E-03    0.27E-06
   1      8    10.053     2.779    0.71E-04    0.11E-03    0.15E-06
   1      8    10.053     4.506    0.18E-03    0.18E-03    0.28E-06
 Optimization of the real space projectors (new method)

 maximal supplied QI-value         = 34.20
 optimisation between [QCUT,QGAM] = [  9.92, 20.18] = [ 27.55,114.04] Ry 
 Optimized for a Real-space Cutoff    1.35 Angstroem

   l    n(q)    QCUT    max X(q) W(low)/X(q) W(high)/X(q)  e(spline) 
   0      8     9.919     4.435    0.29E-04    0.54E-04    0.68E-07
   0      8     9.919    16.011    0.15E-03    0.18E-03    0.36E-06
   1      8     9.919     4.617    0.20E-03    0.44E-03    0.40E-06
 PAW_GGA Si 05Jan2001                   :
 energy of atom  1       EATOM= -103.3076
 kinetic energy error for atom=    0.0012 (will be added to EATOM!!)
 PAW_GGA O 05Jan2001                    :
 energy of atom  2       EATOM= -433.0277
 kinetic energy error for atom=    0.1266 (will be added to EATOM!!)
 PAW_GGA Al 05Jan2001                   :
 energy of atom  3       EATOM=  -53.6910
 kinetic energy error for atom=    0.0006 (will be added to EATOM!!)
 PAW_GGA C 05Jan2001                    :
 energy of atom  4       EATOM= -147.4688
 kinetic energy error for atom=    0.0313 (will be added to EATOM!!)
 PAW_GGA H 07Jul1998                    :
 energy of atom  5       EATOM=  -12.5313
 kinetic energy error for atom=    0.0103 (will be added to EATOM!!)
 
 EXHCAR: internal setup
 exchange correlation table for  LEXCH =        7
   RHO(1)=    0.500       N(1)  =     2000
   RHO(2)=  100.500       N(2)  =     4000
 
 POSCAR: Si O Al H                               
  positions in cartesian coordinates
  velocities in cartesian coordinates
  No initial velocities read in

 VTST: version 2.03c (08/15/07)

 CHAIN: initializing optimizer
 
 OPT: Using VASP Dynamics algorithm
 CHAIN: Read ICHAIN            0
 


--------------------------------------------------------------------------------------------------------


 ion  position               nearest neighbor table
   1  0.807  0.803  0.082-  48 1.62  50 1.62 102 1.63  96 1.63  24 3.12   7 3.12  26 3.15
   2  0.265  0.262  0.247-  49 1.62 101 1.62  51 1.62 103 1.63  27 3.06  12 3.09
   3  0.802  0.807  0.749-  54 1.62  52 1.62  98 1.63 104 1.63  28 3.12  30 3.14   9 3.15
   4  0.262  0.256  0.915-  55 1.62  53 1.62  97 1.62 105 1.63  31 3.14
   5  0.800  0.828  0.414- 100 1.62  58 1.62 106 1.62  56 1.64   7 3.14
   6  0.260  0.265  0.583- 107 1.62  59 1.62  57 1.62  99 1.63  35 3.07  12 3.14
   7  0.910  0.912  0.244-  38 1.61  36 1.62  96 1.63 106 1.63  16 3.12   1 3.12   5 3.14
   8  0.157  0.156  0.083-  37 1.62  39 1.62 103 1.62  97 1.62
   9  0.906  0.909  0.915-  42 1.62  40 1.62  98 1.63 102 1.63   3 3.15
  10  0.155  0.157  0.747-  41 1.62  43 1.62  99 1.62 105 1.63
  11  0.909  0.915  0.585-  46 1.60  44 1.62 104 1.62 100 1.63
  12  0.167  0.163  0.413-  45 1.59 107 1.63  47 1.64 101 1.64   2 3.09  22 3.09   6 3.14 108 3.24

  13  0.879  0.285  0.078-  61 1.62  73 1.62  74 1.63  37 1.63  16 3.04  20 3.06
  14  0.189  0.781  0.241-  60 1.62  80 1.62  36 1.62  75 1.62  15 3.10  22 3.11
  15  0.286  0.876  0.073-  63 1.62  72 1.62  39 1.62  75 1.62  14 3.10  18 3.12
  16  0.783  0.187  0.239-  82 1.60  62 1.63  38 1.64  73 1.64  13 3.04   7 3.12 108 3.16
  17  0.876  0.287  0.749-  78 1.62  65 1.62  77 1.62  41 1.63  23 3.04  20 3.07
  18  0.187  0.779  0.905-  72 1.62  64 1.62  79 1.62  40 1.62  19 3.11  15 3.12  29 3.13
  19  0.284  0.878  0.737-  67 1.62  79 1.62  43 1.63  76 1.63  21 3.08  18 3.11
  20  0.782  0.188  0.914-  66 1.62  74 1.62  77 1.62  42 1.63  13 3.06  17 3.07
  21  0.184  0.782  0.572-  44 1.62  83 1.63  76 1.63  68 1.63  19 3.08  22 3.10
  22  0.281  0.887  0.408-  47 1.62  80 1.63  71 1.63  83 1.63  12 3.09  21 3.10  14 3.11
  23  0.780  0.195  0.584-  81 1.60  70 1.63  46 1.63  78 1.63  17 3.04 108 3.12
  24  0.952  0.537  0.052-  61 1.61  48 1.62  89 1.62  84 1.63   1 3.12
  25  0.111  0.530  0.223-  49 1.61  60 1.62  84 1.62  85 1.64
  26  0.538  0.947  0.052-  86 1.62  63 1.62  50 1.62  91 1.62   1 3.15
  27  0.526  0.127  0.213-  62 1.61  86 1.62  51 1.63  87 1.63   2 3.06
  28  0.947  0.540  0.723-  65 1.61  52 1.62  88 1.62  93 1.63   3 3.12
  29  0.121  0.526  0.886-  53 1.62  64 1.62  88 1.62  89 1.62  18 3.13
  30  0.535  0.952  0.717-  67 1.62  54 1.62  95 1.62  90 1.62   3 3.14
  31  0.531  0.113  0.886-  66 1.62  55 1.62  90 1.62  91 1.63   4 3.14
  32  0.934  0.555  0.384-  92 1.61  85 1.61  56 1.61  69 1.70
  33  0.104  0.532  0.552-  57 1.62  93 1.62  68 1.62  92 1.64
  34  0.529  0.973  0.387-  87 1.62  94 1.62  71 1.62  58 1.63
  35  0.524  0.130  0.557-  70 1.61  59 1.63  94 1.63  95 1.63   6 3.07
  36  0.056  0.871  0.233-   7 1.62  14 1.62
  37  0.013  0.195  0.068-   8 1.62  13 1.63
  38  0.868  0.053  0.218-   7 1.61  16 1.64
  39  0.199  0.011  0.070-   8 1.62  15 1.62
  40  0.050  0.860  0.897-   9 1.62  18 1.62
  41  0.009  0.197  0.739-  10 1.62  17 1.63
  42  0.873  0.055  0.905-   9 1.62  20 1.63
  43  0.196  0.013  0.727-  10 1.62  19 1.63
  44  0.053  0.875  0.567-  11 1.62  21 1.62
  45  0.032  0.235  0.396-  12 1.59 108 1.71
  46  0.868  0.060  0.578-  11 1.60  23 1.63
  47  0.184  0.017  0.400-  22 1.62  12 1.64
  48  0.845  0.658  0.066-   1 1.62  24 1.62
  49  0.209  0.406  0.245-  25 1.61   2 1.62
  50  0.661  0.846  0.072-   1 1.62  26 1.62
  51  0.407  0.238  0.221-   2 1.62  27 1.63
  52  0.842  0.660  0.743-  28 1.62   3 1.62
  53  0.221  0.401  0.900-  29 1.62   4 1.62
  54  0.659  0.849  0.729-   3 1.62  30 1.62
  55  0.408  0.216  0.905-   4 1.62  31 1.62
  56  0.836  0.681  0.398-  32 1.61   5 1.64
  57  0.207  0.409  0.565-  33 1.62   6 1.62
  58  0.655  0.873  0.402-   5 1.62  34 1.63
  59  0.406  0.237  0.579-   6 1.62  35 1.63
  60  0.179  0.641  0.230-  25 1.62  14 1.62
  61  0.888  0.422  0.054-  24 1.61  13 1.62
  62  0.643  0.186  0.214-  27 1.61  16 1.63
  63  0.426  0.880  0.056-  15 1.62  26 1.62
  64  0.190  0.637  0.889-  29 1.62  18 1.62
  65  0.884  0.425  0.729-  28 1.61  17 1.62
  66  0.644  0.179  0.892-  31 1.62  20 1.62
  67  0.423  0.884  0.722-  19 1.62  30 1.62
  68  0.170  0.645  0.550-  33 1.62  21 1.63
  69  0.849  0.449  0.386- 113 1.01  32 1.70 108 1.89
  70  0.641  0.188  0.563-  35 1.61  23 1.63
  71  0.418  0.903  0.394-  34 1.62  22 1.63
  72  0.241  0.792  0.001-  18 1.62  15 1.62
  73  0.827  0.284  0.175-  13 1.62  16 1.64
  74  0.787  0.240  0.011-  20 1.62  13 1.63
  75  0.278  0.815  0.168-  14 1.62  15 1.62
  76  0.243  0.786  0.668-  21 1.63  19 1.63
  77  0.826  0.280  0.847-  20 1.62  17 1.62
  78  0.782  0.245  0.683-  17 1.62  23 1.63
  79  0.272  0.826  0.834-  18 1.62  19 1.62
  80  0.249  0.795  0.335-  14 1.62  22 1.63
  81  0.827  0.283  0.517-  23 1.60 108 1.72
  82  0.793  0.224  0.338-  16 1.60 108 1.72
  83  0.274  0.824  0.502-  21 1.63  22 1.63
  84  0.056  0.524  0.126-  25 1.62  24 1.63
  85  0.998  0.550  0.291-  32 1.61  25 1.64
  86  0.519  0.057  0.122-  26 1.62  27 1.62
  87  0.531  0.029  0.291-  34 1.62  27 1.63
  88  0.059  0.524  0.791-  29 1.62  28 1.62
  89  0.015  0.545  0.958-  24 1.62  29 1.62
  90  0.523  0.057  0.790-  31 1.62  30 1.62
  91  0.547  0.003  0.956-  26 1.62  31 1.63
  92  0.035  0.524  0.460-  32 1.61  33 1.64
  93  0.001  0.550  0.627-  33 1.62  28 1.63
  94  0.513  0.081  0.459-  34 1.62  35 1.63
  95  0.535  0.015  0.622-  30 1.62  35 1.63
  96  0.845  0.830  0.181-   1 1.63   7 1.63
  97  0.225  0.225  0.013-   4 1.62   8 1.62
  98  0.828  0.848  0.847-   3 1.63   9 1.63
  99  0.218  0.233  0.679-  10 1.62   6 1.63
 100  0.837  0.853  0.512-   5 1.62  11 1.63
 101  0.258  0.210  0.345-   2 1.62  12 1.64
 102  0.875  0.874  0.014-   9 1.63   1 1.63
 103  0.192  0.193  0.180-   8 1.62   2 1.63
 104  0.880  0.868  0.680-  11 1.62   3 1.63
 105  0.196  0.183  0.846-  10 1.63   4 1.63
 106  0.873  0.892  0.344-   5 1.62   7 1.63
 107  0.210  0.183  0.512-   6 1.62  12 1.63
 108  0.879  0.282  0.412-  45 1.71  81 1.72  82 1.72  69 1.89  23 3.12  16 3.16  12 3.24
 109  0.576  0.440  0.362- 115 1.09 114 1.09 110 1.35
 110  0.576  0.559  0.372- 109 1.35 111 1.51 112 1.51
 111  0.576  0.639  0.295- 116 1.10 117 1.10 118 1.10 110 1.51
 112  0.571  0.613  0.462- 119 1.10 120 1.10 121 1.10 110 1.51
 113  0.759  0.478  0.375-  69 1.01
 114  0.572  0.381  0.417- 109 1.09
 115  0.574  0.401  0.297- 109 1.09
 116  0.579  0.587  0.234- 111 1.10
 117  0.494  0.712  0.294- 111 1.10
 118  0.652  0.684  0.295- 111 1.10
 119  0.560  0.546  0.511- 112 1.10
 120  0.495  0.692  0.468- 112 1.10
 121  0.653  0.646  0.477- 112 1.10
 

IMPORTANT INFORMATION: All symmetrisations will be switched off!
NOSYMM: (Re-)initialisation of all symmetry stuff for point group C_1.

 
 
 KPOINTS: Gamma-point only                        
  k-points in reciprocal lattice


--------------------------------------------------------------------------------------------------------




 Dimension of arrays:
   k-Points           NKPTS =      1   number of bands    NBANDS=    362
   number of dos      NEDOS =    301   number of ions     NIONS =    121
   non local maximal  LDIM  =      4   non local SUM 2l+1 LMDIM =      8
   total plane-waves  NPLWV = 640000
   max r-space proj   IRMAX =   4489   max aug-charges    IRDMAX=  13130
   dimension x,y,z NGX =    80 NGY =   80 NGZ =  100
   dimension x,y,z NGXF=   160 NGYF=  160 NGZF=  200
   support grid    NGXF=   160 NGYF=  160 NGZF=  200
   ions per type =              35  72   1   4   9
 NGX,Y,Z   is equivalent  to a cutoff of  11.74, 11.76, 10.78 a.u.
 NGXF,Y,Z  is equivalent  to a cutoff of  23.48, 23.52, 21.55 a.u.


 I would recommend the setting:
   dimension x,y,z NGX =    74 NGY =   73 NGZ =  100
 SYSTEM =  unknown system                          
 POSCAR =  Si O Al H                               

 Startparameter for this run:
   NWRITE =      2    write-flag & timer
   PREC   = accura    medium, high low
   ISTART =      0    job   : 0-new  1-cont  2-samecut
   ICHARG =      2    charge: 1-file 2-atom 10-const
   ISPIN  =      1    spin polarized calculation?
   LNONCOLLINEAR =      F non collinear calculations
   LSORBIT =      F    spin-orbit coupling
   INIWAV =      1    electr: 0-lowe 1-rand  2-diag
   LASPH  =      F    aspherical Exc in radial PAW
   METAGGA=      F    non-selfconsistent MetaGGA calc.

 Electronic Relaxation 1
   ENCUT  =  396.0 eV  29.11 Ry    5.39 a.u.  18.38 18.35 25.03*2*pi/ulx,y,z
   ENINI  =  396.0     initial cutoff
   ENAUG  =  644.9 eV  augmentation charge cutoff
   NELM   =    100;   NELMIN=  2; NELMDL=  0     # of ELM steps 
   EDIFF  = 0.1E-03   stopping-criterion for ELM
   LREAL  =      T    real-space projection
   LCOMPAT=      F    compatible to vasp.4.4
   LREAL_COMPAT= F    compatible to vasp.4.5.1-3
   GGA_COMPAT  = T    GGA compatible to vasp.4.4-vasp.4.6
   LMAXPAW     = -100 max onsite density
   LMAXMIX     =    2 max onsite mixed and CHGCAR
   VOSKOWN=      1    Vosko Wilk Nusair interpolation
   ROPT   =   -0.00025  -0.00025  -0.00025  -0.00025
   ROPT   =   -0.00025
 Ionic relaxation
   EDIFFG = 0.1E-02   stopping-criterion for IOM
   NSW    =   1453    number of steps for IOM
   NBLOCK =      1;   KBLOCK =      1    inner block; outer block 
   IBRION =      5    ionic relax: 0-MD 1-quasi-New 2-CG
   NFREE  =      2    steps in history (QN), initial steepest desc. (CG)
   ISIF   =      0    stress and relaxation
   IWAVPR =     11    prediction:  0-non 1-charg 2-wave 3-comb
   ISYM   =      0    0-nonsym 1-usesym 2-fastsym
   LCORR  =      T    Harris-Foulkes like correction to forces

   POTIM  =   0.05    time-step for ionic-motion
   TEIN   =    0.0    initial temperature
   TEBEG  =    0.0;   TEEND  =   0.0 temperature during run
   SMASS  =  -3.00    Nose mass-parameter (am)
   estimated Nose-frequenzy (Omega)   =  0.10E-29 period in steps =****** mass=  -0.293E-26a.u.
   NPACO  =    256;   APACO  = 16.0  distance and # of slots for P.C.
   PSTRESS=    0.0 pullay stress

  Mass of Ions in am
   POMASS =  28.09 16.00 26.98 12.01
   POMASS =   1.00
  Ionic Valenz
   ZVAL   =   4.00  6.00  3.00  4.00
   ZVAL   =   1.00
  Atomic Wigner-Seitz radii
   RWIGS  =  -1.00 -1.00 -1.00 -1.00
   RWIGS  =  -1.00
   NELECT =     600.0000    total number of electrons
   NUPDOWN=      -1.0000    fix difference up-down

 DOS related values:
   EMIN   =  10.00;   EMAX   =-10.00  energy-range for DOS
   ISMEAR =     0;   SIGMA  =   0.05  broadening in eV -4-tet -1-fermi 0-gaus

 Electronic relaxation 2 (details)
   IALGO  =     48    algorithm
   LDIAG  =      T    sub-space diagonalisation
   IMIX   =      4    mixing-type and parameters
     AMIX     =   0.40;   BMIX     =  1.00
     AMIX_MAG =   1.60;   BMIX_MAG =  1.00
     AMIN     =   0.10
     WC   =   100.;   INIMIX=   1;  MIXPRE=   1

 Intra band minimization:
   WEIMIN = 0.0010     energy-eigenvalue tresh-hold
   EBREAK =  0.69E-07  absolut break condition
   DEPER  =   0.30     relativ break condition  

   TIME   =   0.10     timestep for ELM

  volume/ion in A,a.u.               =      15.92       107.42
  Fermi-wavevector in a.u.,eV,Ry     =   1.109773 16.756883  1.231596

 Second variation
   LSECVAR=     F    do a second variation
 
 Write flags
   LWAVE  =      F    write WAVECAR
   LCHARG =      F    write CHGCAR
   LVTOT  =      F    write LOCPOT, local potential
   LELF   =      F    write electronic localiz. function (ELF)
   LORBIT =      0    0 simple, 1 ext, 2 COOP (PROOUT)


 Dipole corrections
   IDIPOL =      0    1-x, 2-y, 3-z
   LDIPOL =      F    correct potential



--------------------------------------------------------------------------------------------------------


 finite differences
   using selective dynamics as specified on POSCAR
   WARNING: If single coordinates had been selected the selection of coordinates
            is made according to the corresponding   d i r e c t   coordinates!
            Don't support selection of single cartesian coordinates -- sorry ...
  !
 charge density will be updated during run
 non-spin polarized calculation
 RMM-DIIS sequential band-by-band
 performe sub-space diagonalisation
    before iterative eigenvector-optimisation
 modified Broyden-mixing scheme, WC =      100.0
 initial mixing is a Kerker type mixing with AMIX =  0.4000 and BMIX =      1.0000
 Hartree-type preconditioning will be used
 using additional bands           62
 real space projection scheme for non local part
 use partial core corrections
 calculate Harris-corrections to forces 
   (improved forces if not selfconsistent)
 use gradient corrections 
 use of overlap-Matrix (Vanderbilt PP)
 Gauss-broadening in eV      SIGMA  =   0.05


--------------------------------------------------------------------------------------------------------


  energy-cutoff  :      396.00
  volume of cell :     1926.08
      direct lattice vectors                 reciprocal lattice vectors
    11.329193060  0.048172558 -0.007060949     0.088352319 -0.019933976  0.000030314
     2.488684723 11.030445785 -0.014154916    -0.000385792  0.090745341  0.000102071
    -0.009217257 -0.017392342 15.427614652     0.000040083  0.000074136  0.064818942

  length of vectors
    11.329297677 11.307717994 15.427627209     0.090573156  0.090746218  0.064818997


 
 k-points in units of 2pi/SCALE and weight: Gamma-point only                        
   0.00000000  0.00000000  0.00000000       1.000
 
 k-points in reciprocal lattice and weights: Gamma-point only                        
   0.00000000  0.00000000  0.00000000       1.000
 
 position of ions in fractional coordinates (direct lattice) 
   0.80657167  0.80279573  0.08224561
   0.26495293  0.26153689  0.24742677
   0.80239685  0.80704038  0.74893905
   0.26207514  0.25607070  0.91490244
   0.80023106  0.82784015  0.41350659
   0.25957023  0.26543833  0.58314336
   0.91034423  0.91195047  0.24399049
   0.15747582  0.15647203  0.08288109
   0.90641113  0.90882665  0.91544549
   0.15506297  0.15686831  0.74748825
   0.90866636  0.91462551  0.58477774
   0.16721704  0.16314041  0.41284976
   0.87942626  0.28512742  0.07751531
   0.18898381  0.78090421  0.24135643
   0.28620730  0.87604623  0.07344368
   0.78307286  0.18666966  0.23929312
   0.87620284  0.28685972  0.74912695
   0.18712903  0.77909038  0.90503858
   0.28358662  0.87821976  0.73748879
   0.78157378  0.18759464  0.91351078
   0.18426771  0.78242157  0.57181206
   0.28051939  0.88743340  0.40783438
   0.78004227  0.19539032  0.58366571
   0.95154013  0.53682676  0.05189201
   0.11084484  0.53005287  0.22256763
   0.53837951  0.94726860  0.05201934
   0.52618406  0.12708024  0.21305740
   0.94680026  0.53973436  0.72314111
   0.12058576  0.52633758  0.88563407
   0.53510024  0.95195107  0.71671603
   0.53055832  0.11343667  0.88647364
   0.93428890  0.55487930  0.38436287
   0.10395448  0.53207984  0.55202492
   0.52874207  0.97305260  0.38701697
   0.52429055  0.12972342  0.55678578
   0.05596487  0.87059801  0.23332582
   0.01250421  0.19474488  0.06845333
   0.86830953  0.05290761  0.21750853
   0.19923590  0.01099077  0.06979998
   0.04975627  0.86019112  0.89661089
   0.00923873  0.19650020  0.73911500
   0.87305057  0.05486393  0.90458081
   0.19587680  0.01266128  0.72687834
   0.05287179  0.87537996  0.56663233
   0.03151778  0.23481530  0.39603049
   0.86755878  0.05969131  0.57841397
   0.18378254  0.01660587  0.40013578
   0.84526575  0.65756219  0.06637695
   0.20857878  0.40648289  0.24476970
   0.66088169  0.84551730  0.07201239
   0.40703400  0.23761626  0.22092567
   0.84241607  0.66038592  0.74272953
   0.22092687  0.40136714  0.90019566
   0.65879990  0.84859171  0.72860866
   0.40794501  0.21607423  0.90458892
   0.83626331  0.68107185  0.39758583
   0.20704620  0.40902698  0.56484098
   0.65524230  0.87324415  0.40184440
   0.40646504  0.23704701  0.57924297
   0.17896425  0.64095076  0.22980578
   0.88809025  0.42248877  0.05388448
   0.64333708  0.18580400  0.21447308
   0.42600650  0.88043036  0.05558889
   0.18984742  0.63689295  0.88883711
   0.88393007  0.42532432  0.72885846
   0.64370810  0.17878731  0.89221289
   0.42347485  0.88424055  0.72192025
   0.17018997  0.64525628  0.55037950
   0.84897970  0.44937276  0.38604298
   0.64109949  0.18814455  0.56318412
   0.41848932  0.90326860  0.39416085
   0.24098582  0.79198820  0.00105975
   0.82736261  0.28372107  0.17534890
   0.78671321  0.24009177  0.01116109
   0.27787510  0.81529561  0.16780867
   0.24319356  0.78639311  0.66767180
   0.82563801  0.28026797  0.84710745
   0.78238524  0.24484529  0.68296389
   0.27196170  0.82591023  0.83418944
   0.24874435  0.79457214  0.33535076
   0.82694214  0.28250886  0.51683061
   0.79309229  0.22351188  0.33849762
   0.27389559  0.82439051  0.50189785
   0.05614312  0.52388292  0.12600005
   0.99764633  0.55008243  0.29073359
   0.51941347  0.05743929  0.12167117
   0.53099910  0.02915127  0.29072048
   0.05874749  0.52385979  0.79103126
   0.01464734  0.54480510  0.95845634
   0.52286246  0.05712410  0.79023576
   0.54685032  0.00281600  0.95585619
   0.03492653  0.52435331  0.45954192
   0.00080761  0.55015891  0.62656073
   0.51296931  0.08052659  0.45859659
   0.53529019  0.01500946  0.62228919
   0.84495717  0.83026831  0.18075692
   0.22549660  0.22478417  0.01258289
   0.82800943  0.84841999  0.84685163
   0.21792720  0.23329935  0.67940022
   0.83736746  0.85269327  0.51191681
   0.25782386  0.20958052  0.34473468
   0.87519717  0.87351405  0.01364613
   0.19156202  0.19286810  0.18020368
   0.87999017  0.86810445  0.68039795
   0.19585889  0.18342048  0.84554636
   0.87337213  0.89225109  0.34424411
   0.21048873  0.18300709  0.51168667
   0.87887138  0.28230311  0.41214121
   0.57568497  0.44047049  0.36167549
   0.57586530  0.55859159  0.37232332
   0.57580899  0.63889838  0.29456535
   0.57074827  0.61290591  0.46186664
   0.75904916  0.47777107  0.37497678
   0.57209194  0.38124927  0.41684559
   0.57438840  0.40063820  0.29742975
   0.57917441  0.58723659  0.23391486
   0.49358785  0.71217017  0.29388079
   0.65248138  0.68372628  0.29539920
   0.56048374  0.54634061  0.51130033
   0.49468780  0.69197053  0.46784560
   0.65261036  0.64589050  0.47706728
 
 position of ions in cartesian coordinates  (Angst):
  11.13495358  8.89261898  1.25179498
   3.65030515  2.89332864  3.81163203
  11.09207476  8.92764287 11.53725384
   3.59794624  2.82128646 14.10928705
  11.12239391  9.16280327  6.36205198
   3.59593857  2.93026505  8.99092101
  12.58077384 10.09883024  3.74485475
   2.17271962  1.73210077  1.27533075
  12.52225180 10.05250547 14.10387570
   2.14024433  1.72479659 11.52864528
  12.56528108 10.12232926  9.00236317
   2.29663379  1.80038629  6.36579704
  10.67206767  3.18609861  1.18563085
   4.08223378  8.61862760  3.71116589
   5.42202369  9.67569039  1.11863958
   9.33393989  2.09261029  3.68355051
  10.63366962  3.19337050 11.54699467
   4.05058922  8.58698797 13.95023723
   5.39162204  9.68798988 11.36325941
   9.31304408  2.09101482 14.08511823
   4.02953452  8.62939017  8.80931984
   5.38284120  9.79520612  6.27736945
   9.31813458  2.18266769  8.99629613
  12.11569612  5.96637406  0.78625240
   2.57286556  5.84818811  3.42540218
   8.45637882 10.47382526  0.78532437
   6.27553961  1.42339372  3.28145336
  12.06304620  5.98654328 11.14201722
   2.66786457  5.79614376 13.65491939
   8.42475390 10.51375641 11.03996564
   6.28493485  1.26139749 13.67082175
  11.96211614  6.15888818  5.91535103
   2.49681114  5.86448461  8.50816213
   8.40827491 10.75194368  5.95324170
   6.25749748  1.44647979  8.58433829
   2.79853011  9.60172200  3.58694250
   0.62569022  2.14753458  1.05322676
   9.96691179  0.62164028  3.34875776
   2.28389122  0.12961684  1.07528478
   2.69617860  9.47509428 13.82003999
   0.58688175  2.15507493 11.39993478
  10.01915976  0.63149794 13.94858302
   2.24393618  0.13645338 11.21243667
   2.77231666  9.64852311  8.72902099
   0.93780193  2.58474787  6.10625939
   9.97196239  0.69015434  8.91657712
   2.11974648  0.18506410  6.17160783
  11.21203201  7.29276827  1.00876191
   3.37238096  4.48947812  3.76898610
   9.59081849  9.35701661  1.09434472
   5.20068239  2.63677875  3.40211867
  11.18054070  7.31201459 11.44324904
   3.49350205  4.42224461 13.88063042
   9.56883274  9.37940866 11.22403018
   5.15109061  2.38731392 13.94971029
  11.16549697  7.54589616  6.11825563
   3.35839928  4.51189993  8.70689737
   9.59289200  9.65684793  6.18251319
   5.18951713  2.62424029  8.93011193
   3.62052666  7.07459687  3.53501880
  11.11229057  4.70208391  0.81905791
   7.74892072  2.07676193  3.30163547
   7.01691110  9.73109434  0.84213352
   3.72765113  7.01889959 13.70228076
  11.06599453  4.72142152 11.23228566
   7.72941478  1.98759509 13.75764075
   6.99157010  9.76141139 11.12200089
   3.52888151  7.11609051  8.48070759
  10.73304375  4.99096515  5.94336694
   7.72618131  2.09640662  8.68139759
   6.98546397  9.97675966  6.06522105
   4.70117407  8.74757338  0.00343736
  10.07782678  3.16637629  2.69535720
   9.51023567  2.68602318  0.16323550
   5.17556761  9.00354136  2.57538494
   4.70611724  8.67436948 10.28773473
  10.04350306  3.11652061 13.05905029
   9.46684116  2.72656387 10.52751358
   5.12884787  9.10875059 12.85594224
   4.79242129  8.77063499  5.16065875
  10.06689888  3.14704574  7.96362560
   9.53822623  2.49775370  5.21344707
   5.15003800  9.09785995  7.72948344
   1.93867433  5.77917524  1.93606827
  12.66882991  6.11065711  4.47049505
   6.02636226  0.65648631  1.87261533
   6.08565994  0.34207475  4.48096160
   1.96199235  5.76747918 12.19589547
   1.51295634  5.99347893 14.77887992
   6.05848984  0.64154783 12.18695230
   6.19357059  0.04078037 14.74267975
   1.69640378  5.77754073  7.08196692
   1.37254643  6.05763952  9.65854427
   6.00770660  0.90497921  7.07028950
   6.09602387  0.18052426  9.59644574
  11.63729293  9.19578953  2.77092945
   3.11399553  2.49011355  0.18934989
  11.48432291  9.38360933 13.04704471
   3.04328563  2.57207759 10.47668372
  11.60406383  9.43702164  7.87967284
   3.43933859  2.31819086  5.31364672
  12.08905303  9.67717254  0.19198306
   2.64857005  2.13351495  2.77603035
  12.12374543  9.60613679 10.47841592
   2.66760527  2.01793870 13.04078412
  12.11196014  9.87801259  5.29206884
   2.83539809  2.01989016  7.89002813
  10.65566811  3.14909850  6.34815416
   7.61490465  4.88002770  5.56949034
   7.91081574  6.18277959  5.73208768
   8.11075281  7.06994900  4.53133136
   7.98718982  6.78008687  7.11279496
   9.78497974  5.30007154  5.77287491
   7.42630709  4.22565863  6.42149705
   7.50167782  4.44171476  4.57890484
   8.02086942  6.50131335  3.59634649
   7.36161032  7.87422061  4.52031373
   9.09094387  7.56809969  4.54301986
   7.70478522  6.04448773  7.87645353
   7.32219777  7.64843685  7.20445392
   8.99656933  7.14760068  7.34625959
 


--------------------------------------------------------------------------------------------------------


 k-point  1 :  0.00000.00000.0000  plane waves:  17214

 maximum and minimum number of plane-waves per node :   8608  8606

 maximum number of plane-waves:  17214
 maximal index in each direction: 
   IXMAX= 18   IYMAX= 18   IZMAX= 25
   IXMIN=-18   IYMIN=-18   IZMIN=  0

 NGX is ok and might be reduce to  74
 NGY is ok and might be reduce to  74
 WARNING: wrap around error must be expected set NGZ to 102

 real space projection operators:
  total allocation   :  29560.62 KBytes
  max/ min on nodes  :  14783.70  14776.93


 parallel 3dFFT wavefunction:
    minimum data exchange during FFTs selected (reduces bandwidth)
 parallel 3dFFT charge:
    minimum data exchange during FFTs selected (reduces bandwidth)

 For storing wavefunctions   99.70 MBYTES are necessary
 For predicting wavefunctions  222.14 MBYTES are necessary
Broyden mixing: mesh for mixing (old mesh)
   NGX = 37   NGY = 37   NGZ = 51
  (NGX  =160   NGY  =160   NGZ  =200)
 gives a total of  69819 points
 initial charge density was supplied:
 charge density of overlapping atoms calculated
 number of electron  600.0000000 magnetization 
 keeping initial charge density in first step


--------------------------------------------------------------------------------------------------------


 Maximum index for non-local projection operator         2167
 Maximum index for augmentation-charges         3137 (set IRDMAX)


--------------------------------------------------------------------------------------------------------


 First call to EWALD:  gamma=   0.142
 Maximum number of real-space cells 3x 3x 2
 Maximum number of reciprocal cells 3x 3x 3

    FEWALD:  VPU time    0.14: CPU time    0.14


----------------------------------------- Iteration    1(   1)  ---------------------------------------


    POTLOK:  VPU time    4.03: CPU time    4.03
    SETDIJ:  VPU time    0.11: CPU time    0.11
    EDDIAG:  VPU time   11.18: CPU time   11.18
  RMM-DIIS:  VPU time   24.82: CPU time   24.82
    ORTHCH:  VPU time    1.08: CPU time    1.08
    DOS   :  VPU time    0.00: CPU time    0.00
    ------------------------------------------
      LOOP:  VPU time   41.23: CPU time   41.35

 eigenvalue-minimisations  :   362
 total energy-change (2. order) : 0.1112448E+05  (-0.2171498E+05)
 number of electron  600.0000000 magnetization 
 augmentation part   600.0000000 magnetization 

 Free energy of the ion-electron system (eV)
  ---------------------------------------------------
  alpha Z        PSCENC =       635.18480956
  Ewald energy   TEWEN  =    -12675.35014886
  -1/2 Hartree   DENC   =    -20176.43625329
  -V(xc)+E(xc)   XCENC  =      1743.26911159
  PAW double counting   =     19093.33307210   -18583.92566578
  entropy T*S    EENTRO =        -0.00596965
  eigenvalues    EBANDS =      5547.67813868
  atomic energy  EATOM  =     35540.73057390
  ---------------------------------------------------
  free energy    TOTEN  =     11124.47766825 eV

  energy without entropy =    11124.48363790  energy(sigma->0) =    11124.48065307


--------------------------------------------------------------------------------------------------------




----------------------------------------- Iteration    1(   2)  ---------------------------------------


    EDDIAG:  VPU time   11.17: CPU time   11.17
  RMM-DIIS:  VPU time   24.74: CPU time   24.74
    ORTHCH:  VPU time    1.08: CPU time    1.08
    DOS   :  VPU time    0.00: CPU time    0.00
    ------------------------------------------
      LOOP:  VPU time   37.00: CPU time   37.17

 eigenvalue-minimisations  :   362
 total energy-change (2. order) :-0.7567991E+04  (-0.8038174E+04)
 number of electron  600.0000000 magnetization 
 augmentation part   600.0000000 magnetization 

 Free energy of the ion-electron system (eV)
  ---------------------------------------------------
  alpha Z        PSCENC =       635.18480956
  Ewald energy   TEWEN  =    -12675.35014886
  -1/2 Hartree   DENC   =    -20176.43625329
  -V(xc)+E(xc)   XCENC  =      1743.26911159
  PAW double counting   =     19093.33307210   -18583.92566578
  entropy T*S    EENTRO =        -0.08009236
  eigenvalues    EBANDS =     -2020.23893717
  atomic energy  EATOM  =     35540.73057390
  ---------------------------------------------------
  free energy    TOTEN  =      3556.48646969 eV

  energy without entropy =     3556.56656205  energy(sigma->0) =     3556.52651587


--------------------------------------------------------------------------------------------------------




----------------------------------------- Iteration    1(   3)  ---------------------------------------


    EDDIAG:  VPU time   11.16: CPU time   11.15
  RMM-DIIS:  VPU time   24.87: CPU time   24.87
    ORTHCH:  VPU time    1.08: CPU time    1.08
    DOS   :  VPU time    0.00: CPU time    0.00
    ------------------------------------------
      LOOP:  VPU time   37.11: CPU time   37.32

 eigenvalue-minimisations  :   362
 total energy-change (2. order) :-0.2707559E+04  (-0.3262559E+04)
 number of electron  600.0000000 magnetization 
 augmentation part   600.0000000 magnetization 

 Free energy of the ion-electron system (eV)
  ---------------------------------------------------
  alpha Z        PSCENC =       635.18480956
  Ewald energy   TEWEN  =    -12675.35014886
  -1/2 Hartree   DENC   =    -20176.43625329
  -V(xc)+E(xc)   XCENC  =      1743.26911159
  PAW double counting   =     19093.33307210   -18583.92566578
  entropy T*S    EENTRO =        -0.07442867
  eigenvalues    EBANDS =     -4727.80337972
  atomic energy  EATOM  =     35540.73057390
  ---------------------------------------------------
  free energy    TOTEN  =       848.92769082 eV

  energy without entropy =      849.00211950  energy(sigma->0) =      848.96490516


--------------------------------------------------------------------------------------------------------




----------------------------------------- Iteration    1(   4)  ---------------------------------------


    EDDIAG:  VPU time   11.16: CPU time   11.16
  RMM-DIIS:  VPU time   24.83: CPU time   24.83
    ORTHCH:  VPU time    1.08: CPU time    1.08
    DOS   :  VPU time    0.00: CPU time    0.00
    ------------------------------------------
      LOOP:  VPU time   37.07: CPU time   37.29

 eigenvalue-minimisations  :   362
 total energy-change (2. order) :-0.1202062E+04  (-0.1202978E+04)
 number of electron  600.0000000 magnetization 
 augmentation part   600.0000000 magnetization 

 Free energy of the ion-electron system (eV)
  ---------------------------------------------------
  alpha Z        PSCENC =       635.18480956
  Ewald energy   TEWEN  =    -12675.35014886
  -1/2 Hartree   DENC   =    -20176.43625329
  -V(xc)+E(xc)   XCENC  =      1743.26911159
  PAW double counting   =     19093.33307210   -18583.92566578
  entropy T*S    EENTRO =        -0.00008822
  eigenvalues    EBANDS =     -5929.93981419
  atomic energy  EATOM  =     35540.73057390
  ---------------------------------------------------
  free energy    TOTEN  =      -353.13440320 eV

  energy without entropy =     -353.13431497  energy(sigma->0) =     -353.13435909


--------------------------------------------------------------------------------------------------------




----------------------------------------- Iteration    1(   5)  ---------------------------------------


    EDDIAG:  VPU time   11.18: CPU time   11.18
  RMM-DIIS:  VPU time   24.79: CPU time   24.79
    ORTHCH:  VPU time    1.08: CPU time    1.08
    DOS   :  VPU time    0.00: CPU time    0.00
    ------------------------------------------
      LOOP:  VPU time   37.05: CPU time   37.24

 eigenvalue-minimisations  :   362
 total energy-change (2. order) :-0.4778510E+03  (-0.4268304E+03)
 number of electron  600.0000000 magnetization 
 augmentation part   600.0000000 magnetization 

 Free energy of the ion-electron system (eV)
  ---------------------------------------------------
  alpha Z        PSCENC =       635.18480956
  Ewald energy   TEWEN  =    -12675.35014886
  -1/2 Hartree   DENC   =    -20176.43625329
  -V(xc)+E(xc)   XCENC  =      1743.26911159
  PAW double counting   =     19093.33307210   -18583.92566578
  entropy T*S    EENTRO =         0.00000000
  eigenvalues    EBANDS =     -6407.79086851
  atomic energy  EATOM  =     35540.73057390
  ---------------------------------------------------
  free energy    TOTEN  =      -830.98536930 eV

  energy without entropy =     -830.98536930  energy(sigma->0) =     -830.98536930


--------------------------------------------------------------------------------------------------------




----------------------------------------- Iteration    1(   6)  ---------------------------------------


    EDDIAG:  VPU time   11.18: CPU time   11.18
  RMM-DIIS:  VPU time   24.78: CPU time   24.78
    ORTHCH:  VPU time    1.08: CPU time    1.08
    DOS   :  VPU time    0.00: CPU time    0.00
    ------------------------------------------
      LOOP:  VPU time   37.04: CPU time   37.28

 eigenvalue-minimisations  :   362
 total energy-change (2. order) :-0.1522902E+03  (-0.1447822E+03)
 number of electron  600.0000000 magnetization 
 augmentation part   600.0000000 magnetization 

 Free energy of the ion-electron system (eV)
  ---------------------------------------------------
  alpha Z        PSCENC =       635.18480956
  Ewald energy   TEWEN  =    -12675.35014886
  -1/2 Hartree   DENC   =    -20176.43625329
  -V(xc)+E(xc)   XCENC  =      1743.26911159
  PAW double counting   =     19093.33307210   -18583.92566578
  entropy T*S    EENTRO =         0.00000000
  eigenvalues    EBANDS =     -6560.08105788
  atomic energy  EATOM  =     35540.73057390
  ---------------------------------------------------
  free energy    TOTEN  =      -983.27555866 eV

  energy without entropy =     -983.27555866  energy(sigma->0) =     -983.27555866


--------------------------------------------------------------------------------------------------------




----------------------------------------- Iteration    1(   7)  ---------------------------------------


    EDDIAG:  VPU time   11.20: CPU time   11.20
  RMM-DIIS:  VPU time   24.77: CPU time   24.77
    ORTHCH:  VPU time    1.08: CPU time    1.08
    DOS   :  VPU time    0.00: CPU time    0.00
    ------------------------------------------
      LOOP:  VPU time   37.06: CPU time   37.29

 eigenvalue-minimisations  :   362
 total energy-change (2. order) :-0.4561287E+02  (-0.4536920E+02)
 number of electron  600.0000000 magnetization 
 augmentation part   600.0000000 magnetization 

 Free energy of the ion-electron system (eV)
  ---------------------------------------------------
  alpha Z        PSCENC =       635.18480956
  Ewald energy   TEWEN  =    -12675.35014886
  -1/2 Hartree   DENC   =    -20176.43625329
  -V(xc)+E(xc)   XCENC  =      1743.26911159
  PAW double counting   =     19093.33307210   -18583.92566578
  entropy T*S    EENTRO =         0.00000000
  eigenvalues    EBANDS =     -6605.69393285
  atomic energy  EATOM  =     35540.73057390
  ---------------------------------------------------
  free energy    TOTEN  =     -1028.88843363 eV

  energy without entropy =    -1028.88843363  energy(sigma->0) =    -1028.88843363


--------------------------------------------------------------------------------------------------------




----------------------------------------- Iteration    1(   8)  ---------------------------------------


    EDDIAG:  VPU time   11.01: CPU time   11.02
  RMM-DIIS:  VPU time   24.56: CPU time   24.57
    ORTHCH:  VPU time    1.08: CPU time    1.08
    DOS   :  VPU time    0.00: CPU time    0.00
    ------------------------------------------
      LOOP:  VPU time   36.67: CPU time   36.91

 eigenvalue-minimisations  :   362
 total energy-change (2. order) :-0.1554367E+02  (-0.1517808E+02)
 number of electron  600.0000000 magnetization 
 augmentation part   600.0000000 magnetization 

 Free energy of the ion-electron system (eV)
  ---------------------------------------------------
  alpha Z        PSCENC =       635.18480956
  Ewald energy   TEWEN  =    -12675.35014886
  -1/2 Hartree   DENC   =    -20176.43625329
  -V(xc)+E(xc)   XCENC  =      1743.26911159
  PAW double counting   =     19093.33307210   -18583.92566578
  entropy T*S    EENTRO =         0.00000000
  eigenvalues    EBANDS =     -6621.23760211
  atomic energy  EATOM  =     35540.73057390
  ---------------------------------------------------
  free energy    TOTEN  =     -1044.43210289 eV

  energy without entropy =    -1044.43210289  energy(sigma->0) =    -1044.43210289


--------------------------------------------------------------------------------------------------------




----------------------------------------- Iteration    1(   9)  ---------------------------------------


    EDDIAG:  VPU time   11.02: CPU time   11.02
  RMM-DIIS:  VPU time   43.00: CPU time   43.00
    ORTHCH:  VPU time    1.08: CPU time    1.08
    DOS   :  VPU time    0.00: CPU time    0.00
    ------------------------------------------
      LOOP:  VPU time   55.10: CPU time   55.34

 eigenvalue-minimisations  :   757
 total energy-change (2. order) :-0.7671378E+01  (-0.7611266E+01)
 number of electron  600.0000000 magnetization 
 augmentation part   600.0000000 magnetization 

 Free energy of the ion-electron system (eV)
  ---------------------------------------------------
  alpha Z        PSCENC =       635.18480956
  Ewald energy   TEWEN  =    -12675.35014886
  -1/2 Hartree   DENC   =    -20176.43625329
  -V(xc)+E(xc)   XCENC  =      1743.26911159
  PAW double counting   =     19093.33307210   -18583.92566578
  entropy T*S    EENTRO =         0.00000000
  eigenvalues    EBANDS =     -6628.90898031
  atomic energy  EATOM  =     35540.73057390
  ---------------------------------------------------
  free energy    TOTEN  =     -1052.10348110 eV

  energy without entropy =    -1052.10348110  energy(sigma->0) =    -1052.10348110


--------------------------------------------------------------------------------------------------------




----------------------------------------- Iteration    1(  10)  ---------------------------------------


    EDDIAG:  VPU time   11.02: CPU time   11.02
  RMM-DIIS:  VPU time   47.19: CPU time   47.20
    ORTHCH:  VPU time    1.08: CPU time    1.08
    DOS   :  VPU time    0.00: CPU time    0.00
    ------------------------------------------
      LOOP:  VPU time   59.30: CPU time   59.53

 eigenvalue-minimisations  :   849
 total energy-change (2. order) :-0.8269157E+00  (-0.8953539E+00)
 number of electron  600.0000000 magnetization 
 augmentation part   600.0000000 magnetization 

 Free energy of the ion-electron system (eV)
  ---------------------------------------------------
  alpha Z        PSCENC =       635.18480956
  Ewald energy   TEWEN  =    -12675.35014886
  -1/2 Hartree   DENC   =    -20176.43625329
  -V(xc)+E(xc)   XCENC  =      1743.26911159
  PAW double counting   =     19093.33307210   -18583.92566578
  entropy T*S    EENTRO =         0.00000000
  eigenvalues    EBANDS =     -6629.73589601
  atomic energy  EATOM  =     35540.73057390
  ---------------------------------------------------
  free energy    TOTEN  =     -1052.93039679 eV

  energy without entropy =    -1052.93039679  energy(sigma->0) =    -1052.93039679


--------------------------------------------------------------------------------------------------------




----------------------------------------- Iteration    1(  11)  ---------------------------------------


    EDDIAG:  VPU time   11.01: CPU time   11.01
  RMM-DIIS:  VPU time   43.36: CPU time   43.37
    ORTHCH:  VPU time    1.08: CPU time    1.08
    DOS   :  VPU time    0.00: CPU time    0.00
    ------------------------------------------
      LOOP:  VPU time   55.46: CPU time   55.67

 eigenvalue-minimisations  :   768
 total energy-change (2. order) : 0.5164926E-03  (-0.1849376E-01)
 number of electron  600.0000000 magnetization 
 augmentation part   600.0000000 magnetization 

 Free energy of the ion-electron system (eV)
  ---------------------------------------------------
  alpha Z        PSCENC =       635.18480956
  Ewald energy   TEWEN  =    -12675.35014886
  -1/2 Hartree   DENC   =    -20176.43625329
  -V(xc)+E(xc)   XCENC  =      1743.26911159
  PAW double counting   =     19093.33307210   -18583.92566578
  entropy T*S    EENTRO =         0.00000000
  eigenvalues    EBANDS =     -6629.73537952
  atomic energy  EATOM  =     35540.73057390
  ---------------------------------------------------
  free energy    TOTEN  =     -1052.92988030 eV

  energy without entropy =    -1052.92988030  energy(sigma->0) =    -1052.92988030


--------------------------------------------------------------------------------------------------------




----------------------------------------- Iteration    1(  12)  ---------------------------------------


    EDDIAG:  VPU time   11.02: CPU time   11.02
  RMM-DIIS:  VPU time   41.64: CPU time   41.64
    ORTHCH:  VPU time    1.08: CPU time    1.09
    DOS   :  VPU time    0.00: CPU time    0.00
    CHARGE:  VPU time    4.98: CPU time    4.98
    MIXING:  VPU time    0.11: CPU time    0.11
    ------------------------------------------
      LOOP:  VPU time   58.84: CPU time   59.06

 eigenvalue-minimisations  :   731
 total energy-change (2. order) :-0.2961834E-02  (-0.2958597E-02)
 number of electron  600.0000035 magnetization 
 augmentation part    54.8241499 magnetization 

 Broyden mixing:
  rms(total) = 0.65245E+01    rms(broyden)= 0.65191E+01
  rms(prec ) = 0.74906E+01
  weight for this iteration     100.00

 Free energy of the ion-electron system (eV)
  ---------------------------------------------------
  alpha Z        PSCENC =       635.18480956
  Ewald energy   TEWEN  =    -12675.35014886
  -1/2 Hartree   DENC   =    -20176.43625329
  -V(xc)+E(xc)   XCENC  =      1743.26911159
  PAW double counting   =     19093.33307210   -18583.92566578
  entropy T*S    EENTRO =         0.00000000
  eigenvalues    EBANDS =     -6629.73834135
  atomic energy  EATOM  =     35540.73057390
  ---------------------------------------------------
  free energy    TOTEN  =     -1052.93284213 eV

  energy without entropy =    -1052.93284213  energy(sigma->0) =    -1052.93284213


--------------------------------------------------------------------------------------------------------




----------------------------------------- Iteration    1(  13)  ---------------------------------------


    POTLOK:  VPU time    4.02: CPU time    4.03
    SETDIJ:  VPU time    0.12: CPU time    0.11
    EDDIAG:  VPU time   11.02: CPU time   11.02
  RMM-DIIS:  VPU time   41.39: CPU time   41.39
    ORTHCH:  VPU time    1.09: CPU time    1.09
    DOS   :  VPU time    0.00: CPU time    0.00
    CHARGE:  VPU time    5.00: CPU time    5.00
    MIXING:  VPU time    0.11: CPU time    0.11
    ------------------------------------------
      LOOP:  VPU time   62.75: CPU time   62.98

 eigenvalue-minimisations  :   724
 total energy-change (2. order) : 0.1221738E+03  (-0.5306926E+02)
 number of electron  600.0000029 magnetization 
 augmentation part    45.1451586 magnetization 

 Broyden mixing:
  rms(total) = 0.18913E+01    rms(broyden)= 0.18879E+01
  rms(prec ) = 0.20837E+01
  weight for this iteration     100.00

 eigenvalues of (default mixing * dielectric matrix)
  average eigenvalue GAMMA=   1.0013
  1.0013

 Free energy of the ion-electron system (eV)
  ---------------------------------------------------
  alpha Z        PSCENC =       635.18480956
  Ewald energy   TEWEN  =    -12675.35014886
  -1/2 Hartree   DENC   =    -21573.29278865
  -V(xc)+E(xc)   XCENC  =      1834.93574310
  PAW double counting   =     22940.01004472   -22456.67497138
  entropy T*S    EENTRO =         0.00000000
  eigenvalues    EBANDS =     -5176.30233433
  atomic energy  EATOM  =     35540.73057390
  ---------------------------------------------------
  free energy    TOTEN  =      -930.75907194 eV

  energy without entropy =     -930.75907194  energy(sigma->0) =     -930.75907194


--------------------------------------------------------------------------------------------------------




----------------------------------------- Iteration    1(  14)  ---------------------------------------


    POTLOK:  VPU time    4.02: CPU time    4.02
    SETDIJ:  VPU time    0.12: CPU time    0.11
    EDDIAG:  VPU time   11.02: CPU time   11.02
  RMM-DIIS:  VPU time   41.40: CPU time   41.40
    ORTHCH:  VPU time    1.09: CPU time    1.09
    DOS   :  VPU time    0.00: CPU time    0.00
    CHARGE:  VPU time    5.00: CPU time    5.00
    MIXING:  VPU time    0.11: CPU time    0.11
    ------------------------------------------
      LOOP:  VPU time   62.76: CPU time   63.03

 eigenvalue-minimisations  :   724
 total energy-change (2. order) : 0.1266322E+01  (-0.2444492E+01)
 number of electron  600.0000028 magnetization 
 augmentation part    43.7265625 magnetization 

 Broyden mixing:
  rms(total) = 0.12622E+01    rms(broyden)= 0.12617E+01
  rms(prec ) = 0.13508E+01
  weight for this iteration     100.00

 eigenvalues of (default mixing * dielectric matrix)
  average eigenvalue GAMMA=   1.6999
  1.1792  2.2206

 Free energy of the ion-electron system (eV)
  ---------------------------------------------------
  alpha Z        PSCENC =       635.18480956
  Ewald energy   TEWEN  =    -12675.35014886
  -1/2 Hartree   DENC   =    -21812.49184889
  -V(xc)+E(xc)   XCENC  =      1849.96361845
  PAW double counting   =     24043.40653315   -23561.76931228
  entropy T*S    EENTRO =         0.00000000
  eigenvalues    EBANDS =     -4949.16697532
  atomic energy  EATOM  =     35540.73057390
  ---------------------------------------------------
  free energy    TOTEN  =      -929.49275029 eV

  energy without entropy =     -929.49275029  energy(sigma->0) =     -929.49275029


--------------------------------------------------------------------------------------------------------




----------------------------------------- Iteration    1(  15)  ---------------------------------------


    POTLOK:  VPU time    4.00: CPU time    4.00
    SETDIJ:  VPU time    0.11: CPU time    0.11
    EDDIAG:  VPU time   11.14: CPU time   11.14
  RMM-DIIS:  VPU time   41.20: CPU time   41.20
    ORTHCH:  VPU time    1.08: CPU time    1.08
    DOS   :  VPU time    0.00: CPU time    0.00
    CHARGE:  VPU time    4.95: CPU time    4.95
    MIXING:  VPU time    0.11: CPU time    0.11
    ------------------------------------------
      LOOP:  VPU time   62.61: CPU time   62.84

 eigenvalue-minimisations  :   724
 total energy-change (2. order) : 0.2635893E+00  (-0.4566944E+00)
 number of electron  600.0000028 magnetization 
 augmentation part    44.2084596 magnetization 

 Broyden mixing:
  rms(total) = 0.25181E+00    rms(broyden)= 0.25176E+00
  rms(prec ) = 0.29853E+00
  weight for this iteration     100.00

 eigenvalues of (default mixing * dielectric matrix)
  average eigenvalue GAMMA=   1.6124
  2.5581  1.1395  1.1395

 Free energy of the ion-electron system (eV)
  ---------------------------------------------------
  alpha Z        PSCENC =       635.18480956
  Ewald energy   TEWEN  =    -12675.35014886
  -1/2 Hartree   DENC   =    -21884.78315153
  -V(xc)+E(xc)   XCENC  =      1854.34541127
  PAW double counting   =     24883.67634744   -24399.55747624
  entropy T*S    EENTRO =         0.00000000
  eigenvalues    EBANDS =     -4883.47552655
  atomic energy  EATOM  =     35540.73057390
  ---------------------------------------------------
  free energy    TOTEN  =      -929.22916102 eV

  energy without entropy =     -929.22916102  energy(sigma->0) =     -929.22916102


--------------------------------------------------------------------------------------------------------




----------------------------------------- Iteration    1(  16)  ---------------------------------------


    POTLOK:  VPU time    4.02: CPU time    4.02
    SETDIJ:  VPU time    0.12: CPU time    0.11
    EDDIAG:  VPU time   11.18: CPU time   11.18
  RMM-DIIS:  VPU time   41.19: CPU time   41.19
    ORTHCH:  VPU time    1.08: CPU time    1.08
    DOS   :  VPU time    0.00: CPU time    0.00
    CHARGE:  VPU time    4.93: CPU time    4.93
    MIXING:  VPU time    0.11: CPU time    0.11
    ------------------------------------------
      LOOP:  VPU time   62.63: CPU time   62.85

 eigenvalue-minimisations  :   725
 total energy-change (2. order) : 0.1198018E+00  (-0.1324709E+00)
 number of electron  600.0000028 magnetization 
 augmentation part    43.8097251 magnetization 

 Broyden mixing:
  rms(total) = 0.66778E-01    rms(broyden)= 0.66539E-01
  rms(prec ) = 0.82193E-01
  weight for this iteration     100.00

 eigenvalues of (default mixing * dielectric matrix)
  average eigenvalue GAMMA=   1.5991
  2.4904  1.8197  1.0431  1.0431

 Free energy of the ion-electron system (eV)
  ---------------------------------------------------
  alpha Z        PSCENC =       635.18480956
  Ewald energy   TEWEN  =    -12675.35014886
  -1/2 Hartree   DENC   =    -21982.55841049
  -V(xc)+E(xc)   XCENC  =      1860.50986078
  PAW double counting   =     25122.77225833   -24639.79348963
  entropy T*S    EENTRO =         0.00000000
  eigenvalues    EBANDS =     -4790.60481281
  atomic energy  EATOM  =     35540.73057390
  ---------------------------------------------------
  free energy    TOTEN  =      -929.10935923 eV

  energy without entropy =     -929.10935923  energy(sigma->0) =     -929.10935923


--------------------------------------------------------------------------------------------------------




----------------------------------------- Iteration    1(  17)  ---------------------------------------


    POTLOK:  VPU time    4.02: CPU time    4.02
    SETDIJ:  VPU time    0.11: CPU time    0.11
    EDDIAG:  VPU time   11.18: CPU time   11.18
  RMM-DIIS:  VPU time   41.55: CPU time   41.55
    ORTHCH:  VPU time    1.08: CPU time    1.08
    DOS   :  VPU time    0.00: CPU time    0.00
    CHARGE:  VPU time    4.98: CPU time    4.98
    MIXING:  VPU time    0.12: CPU time    0.12
    ------------------------------------------
      LOOP:  VPU time   63.05: CPU time   63.28

 eigenvalue-minimisations  :   729
 total energy-change (2. order) :-0.2507530E-01  (-0.1119613E-01)
 number of electron  600.0000028 magnetization 
 augmentation part    43.7450454 magnetization 

 Broyden mixing:
  rms(total) = 0.59749E-01    rms(broyden)= 0.59715E-01
  rms(prec ) = 0.70407E-01
  weight for this iteration     100.00

 eigenvalues of (default mixing * dielectric matrix)
  average eigenvalue GAMMA=   1.6113
  2.3374  2.3374  1.1955  1.1955  0.9908

 Free energy of the ion-electron system (eV)
  ---------------------------------------------------
  alpha Z        PSCENC =       635.18480956
  Ewald energy   TEWEN  =    -12675.35014886
  -1/2 Hartree   DENC   =    -21991.19489734
  -V(xc)+E(xc)   XCENC  =      1860.70334573
  PAW double counting   =     25056.91709607   -24573.88517883
  entropy T*S    EENTRO =         0.00000000
  eigenvalues    EBANDS =     -4782.24003476
  atomic energy  EATOM  =     35540.73057390
  ---------------------------------------------------
  free energy    TOTEN  =      -929.13443452 eV

  energy without entropy =     -929.13443452  energy(sigma->0) =     -929.13443452


--------------------------------------------------------------------------------------------------------




----------------------------------------- Iteration    1(  18)  ---------------------------------------


    POTLOK:  VPU time    4.03: CPU time    4.03
    SETDIJ:  VPU time    0.12: CPU time    0.12
    EDDIAG:  VPU time   11.01: CPU time   11.01
  RMM-DIIS:  VPU time   41.33: CPU time   41.33
    ORTHCH:  VPU time    1.08: CPU time    1.09
    DOS   :  VPU time    0.00: CPU time    0.00
    CHARGE:  VPU time    4.97: CPU time    4.97
    MIXING:  VPU time    0.12: CPU time    0.12
    ------------------------------------------
      LOOP:  VPU time   62.66: CPU time   62.89

 eigenvalue-minimisations  :   724
 total energy-change (2. order) : 0.7508224E-02  (-0.6911213E-02)
 number of electron  600.0000028 magnetization 
 augmentation part    43.8420584 magnetization 

 Broyden mixing:
  rms(total) = 0.24406E-01    rms(broyden)= 0.24377E-01
  rms(prec ) = 0.32261E-01
  weight for this iteration     100.00

 eigenvalues of (default mixing * dielectric matrix)
  average eigenvalue GAMMA=   1.7102
  2.9703  2.4795  1.5618  0.9768  1.1366  1.1366

 Free energy of the ion-electron system (eV)
  ---------------------------------------------------
  alpha Z        PSCENC =       635.18480956
  Ewald energy   TEWEN  =    -12675.35014886
  -1/2 Hartree   DENC   =    -21980.35569217
  -V(xc)+E(xc)   XCENC  =      1859.74867628
  PAW double counting   =     24999.36442483   -24515.98597663
  entropy T*S    EENTRO =         0.00000000
  eigenvalues    EBANDS =     -4792.46359320
  atomic energy  EATOM  =     35540.73057390
  ---------------------------------------------------
  free energy    TOTEN  =      -929.12692630 eV

  energy without entropy =     -929.12692630  energy(sigma->0) =     -929.12692630


--------------------------------------------------------------------------------------------------------




----------------------------------------- Iteration    1(  19)  ---------------------------------------


    POTLOK:  VPU time    4.04: CPU time    4.04
    SETDIJ:  VPU time    0.12: CPU time    0.12
    EDDIAG:  VPU time   11.00: CPU time   11.01
  RMM-DIIS:  VPU time   41.38: CPU time   41.38
    ORTHCH:  VPU time    1.08: CPU time    1.09
    DOS   :  VPU time    0.00: CPU time    0.00
    CHARGE:  VPU time    4.96: CPU time    4.96
    MIXING:  VPU time    0.12: CPU time    0.12
    ------------------------------------------
      LOOP:  VPU time   62.72: CPU time   62.94

 eigenvalue-minimisations  :   724
 total energy-change (2. order) : 0.8350691E-02  (-0.2472732E-02)
 number of electron  600.0000028 magnetization 
 augmentation part    43.8002643 magnetization 

 Broyden mixing:
  rms(total) = 0.99060E-02    rms(broyden)= 0.98950E-02
  rms(prec ) = 0.14034E-01
  weight for this iteration     100.00

 eigenvalues of (default mixing * dielectric matrix)
  average eigenvalue GAMMA=   1.6598
  3.0092  2.4608  1.8190  1.0091  1.1304  1.0953  1.0953

 Free energy of the ion-electron system (eV)
  ---------------------------------------------------
  alpha Z        PSCENC =       635.18480956
  Ewald energy   TEWEN  =    -12675.35014886
  -1/2 Hartree   DENC   =    -21994.66509281
  -V(xc)+E(xc)   XCENC  =      1860.44695752
  PAW double counting   =     25007.28693430   -24524.03197737
  entropy T*S    EENTRO =         0.00000000
  eigenvalues    EBANDS =     -4778.72063184
  atomic energy  EATOM  =     35540.73057390
  ---------------------------------------------------
  free energy    TOTEN  =      -929.11857561 eV

  energy without entropy =     -929.11857561  energy(sigma->0) =     -929.11857561


--------------------------------------------------------------------------------------------------------




----------------------------------------- Iteration    1(  20)  ---------------------------------------


    POTLOK:  VPU time    4.04: CPU time    4.05
    SETDIJ:  VPU time    0.12: CPU time    0.12
    EDDIAG:  VPU time   11.02: CPU time   11.02
  RMM-DIIS:  VPU time   38.69: CPU time   38.70
    ORTHCH:  VPU time    1.08: CPU time    1.08
    DOS   :  VPU time    0.00: CPU time    0.00
    CHARGE:  VPU time    4.97: CPU time    4.97
    MIXING:  VPU time    0.13: CPU time    0.13
    ------------------------------------------
      LOOP:  VPU time   60.06: CPU time   60.30

 eigenvalue-minimisations  :   665
 total energy-change (2. order) : 0.2272966E-02  (-0.3049654E-03)
 number of electron  600.0000028 magnetization 
 augmentation part    43.8038045 magnetization 

 Broyden mixing:
  rms(total) = 0.43624E-02    rms(broyden)= 0.43601E-02
  rms(prec ) = 0.71881E-02
  weight for this iteration     100.00

 eigenvalues of (default mixing * dielectric matrix)
  average eigenvalue GAMMA=   1.8697
  4.0043  2.7740  2.3542  1.6794  1.1111  1.1111  0.9619  0.9619

 Free energy of the ion-electron system (eV)
  ---------------------------------------------------
  alpha Z        PSCENC =       635.18480956
  Ewald energy   TEWEN  =    -12675.35014886
  -1/2 Hartree   DENC   =    -21994.53126838
  -V(xc)+E(xc)   XCENC  =      1860.34870426
  PAW double counting   =     25005.23954131   -24521.95161107
  entropy T*S    EENTRO =         0.00000000
  eigenvalues    EBANDS =     -4778.78690336
  atomic energy  EATOM  =     35540.73057390
  ---------------------------------------------------
  free energy    TOTEN  =      -929.11630264 eV

  energy without entropy =     -929.11630264  energy(sigma->0) =     -929.11630264


--------------------------------------------------------------------------------------------------------




----------------------------------------- Iteration    1(  21)  ---------------------------------------


    POTLOK:  VPU time    4.05: CPU time    4.05
    SETDIJ:  VPU time    0.12: CPU time    0.12
    EDDIAG:  VPU time   11.13: CPU time   11.14
  RMM-DIIS:  VPU time   40.85: CPU time   40.85
    ORTHCH:  VPU time    1.08: CPU time    1.09
    DOS   :  VPU time    0.00: CPU time    0.00
    CHARGE:  VPU time    5.05: CPU time    5.05
    MIXING:  VPU time    0.13: CPU time    0.13
    ------------------------------------------
      LOOP:  VPU time   62.42: CPU time   62.65

 eigenvalue-minimisations  :   719
 total energy-change (2. order) : 0.3761143E-02  (-0.4091384E-03)
 number of electron  600.0000028 magnetization 
 augmentation part    43.8162260 magnetization 

 Broyden mixing:
  rms(total) = 0.58434E-02    rms(broyden)= 0.58397E-02
  rms(prec ) = 0.66679E-02
  weight for this iteration     100.00

 eigenvalues of (default mixing * dielectric matrix)
  average eigenvalue GAMMA=   1.8933
  4.5599  2.8424  2.4595  1.4819  1.4819  1.0961  1.0961  0.9633  1.0590

 Free energy of the ion-electron system (eV)
  ---------------------------------------------------
  alpha Z        PSCENC =       635.18480956
  Ewald energy   TEWEN  =    -12675.35014886
  -1/2 Hartree   DENC   =    -21994.13320896
  -V(xc)+E(xc)   XCENC  =      1860.22168025
  PAW double counting   =     25002.53982948   -24519.21394488
  entropy T*S    EENTRO =         0.00000000
  eigenvalues    EBANDS =     -4779.09213199
  atomic energy  EATOM  =     35540.73057390
  ---------------------------------------------------
  free energy    TOTEN  =      -929.11254150 eV

  energy without entropy =     -929.11254150  energy(sigma->0) =     -929.11254150


--------------------------------------------------------------------------------------------------------




----------------------------------------- Iteration    1(  22)  ---------------------------------------


    POTLOK:  VPU time    4.04: CPU time    4.04
    SETDIJ:  VPU time    0.12: CPU time    0.12
    EDDIAG:  VPU time   11.20: CPU time   11.20
  RMM-DIIS:  VPU time   38.49: CPU time   38.49
    ORTHCH:  VPU time    1.08: CPU time    1.08
    DOS   :  VPU time    0.00: CPU time    0.00
    ------------------------------------------
      LOOP:  VPU time   54.94: CPU time   55.13

 eigenvalue-minimisations  :   666
 total energy-change (2. order) :-0.1390775E-04  (-0.9397873E-04)
 number of electron  600.0000028 magnetization 
 augmentation part    43.8162260 magnetization 

 Free energy of the ion-electron system (eV)
  ---------------------------------------------------
  alpha Z        PSCENC =       635.18480956
  Ewald energy   TEWEN  =    -12675.35014886
  -1/2 Hartree   DENC   =    -21996.18609861
  -V(xc)+E(xc)   XCENC  =      1860.33675425
  PAW double counting   =     25006.83075368   -24523.53592007
  entropy T*S    EENTRO =         0.00000000
  eigenvalues    EBANDS =     -4777.12327926
  atomic energy  EATOM  =     35540.73057390
  ---------------------------------------------------
  free energy    TOTEN  =      -929.11255541 eV

  energy without entropy =     -929.11255541  energy(sigma->0) =     -929.11255541


--------------------------------------------------------------------------------------------------------




 average (electrostatic) potential at core
  the test charge radii are     0.9892  0.7215  1.0406  0.6991  0.5201
  (the norm of the test charge is              1.0000)
       1 -89.2856       2 -89.1652       3 -89.2603       4 -89.2504       5 -89.4849
       6 -89.1879       7 -89.2595       8 -89.2218       9 -89.2700      10 -89.2379
      11 -89.2171      12 -88.7991      13 -89.1052      14 -89.2626      15 -89.2009
      16 -88.7624      17 -89.0676      18 -89.1996      19 -89.2203      20 -89.1441
      21 -89.2661      22 -89.2155      23 -88.7098      24 -89.2924      25 -89.4252
      26 -89.2540      27 -89.1708      28 -89.2536      29 -89.2442      30 -89.2556
      31 -89.2521      32 -89.8882      33 -89.4824      34 -89.3412      35 -89.1544
      36 -75.6440      37 -75.5166      38 -75.4344      39 -75.5716      40 -75.6081
      41 -75.5098      42 -75.5420      43 -75.5635      44 -75.5763      45 -74.6062
      46 -75.3959      47 -75.4074      48 -75.5995      49 -75.6508      50 -75.6135
[...]
      8.110753  7.069949  4.531331    -0.000175    0.001214   -0.000977  
      7.987190  6.780087  7.112795    -0.000381    0.000255    0.001458  
      9.784980  5.300072  5.772875     0.053671   -0.019466    0.010499  
      7.426307  4.225659  6.421497     0.133624    0.458254   -0.614479  
      7.501678  4.441715  4.578905     0.055478    0.223372    0.532838  
      8.020869  6.501313  3.596346     0.001208    0.004406    0.007763  
      7.361610  7.874221  4.520314     0.010461   -0.013624    0.001201  
      9.090944  7.568100  4.543020    -0.008713   -0.006107    0.001221  
      7.704785  6.044488  7.876454     0.004421    0.011472   -0.013611  
      7.322198  7.648437  7.204454     0.007063   -0.010996   -0.002666  
      8.996569  7.147601  7.346260    -0.007436   -0.003836   -0.003749  

### I made a cut here ###
### I deleted almost all other eigenvectors ###
 
 164 f  =    2.213812 THz    13.909791 2PiTHz   73.844815 cm-1     9.155594 meV
             X         Y         Z           dx          dy          dz
     11.134954  8.892619  1.251795    -0.000005    0.000116    0.000079  
      3.650305  2.893329  3.811632    -0.000199   -0.000070   -0.000019  
     11.092075  8.927643 11.537254            0           0           0  
      3.597946  2.821286 14.109287            0           0           0  
     11.122394  9.162803  6.362052    -0.001613   -0.000631   -0.000224  
      3.595939  2.930265  8.990921    -0.000325    0.000212   -0.000026  
     12.580774 10.098830  3.744855            0           0           0  
      2.172720  1.732101  1.275331            0           0           0  
     12.522252 10.052505 14.103876            0           0           0  
      2.140244  1.724797 11.528645            0           0           0  
     12.565281 10.122329  9.002363            0           0           0  
      2.296634  1.800386  6.365797            0           0           0  
     10.672068  3.186099  1.185631     0.000114    0.000166   -0.000112  
      4.082234  8.618628  3.711166     0.000077    0.000063    0.000326  
      5.422024  9.675690  1.118640    -0.000071   -0.000191    0.000291  
      9.333940  2.092610  3.683551    -0.000182   -0.000602   -0.000746  
     10.633670  3.193371 11.546995            0           0           0  
      4.050589  8.586988 13.950237            0           0           0  
      5.391622  9.687990 11.363259            0           0           0  
      9.313044  2.091015 14.085118            0           0           0  
      4.029535  8.629390  8.809320     0.000991    0.000796   -0.000512  
      5.382841  9.795206  6.277369    -0.000048   -0.001474   -0.000580  
      9.318135  2.182668  8.996296    -0.000743   -0.000420    0.000352  
     12.115696  5.966374  0.786252     0.000097    0.000303    0.000016  
      2.572866  5.848188  3.425402     0.000386    0.000258   -0.000259  
      8.456379 10.473825  0.785324    -0.000196   -0.000283   -0.000177  
      6.275540  1.423394  3.281453    -0.000560   -0.000965   -0.000167  
     12.063046  5.986543 11.142017            0           0           0  
      2.667865  5.796144 13.654919            0           0           0  
      8.424754 10.513756 11.039966            0           0           0  
      6.284935  1.261397 13.670822            0           0           0  
     11.962116  6.158888  5.915351     0.001599    0.000207   -0.000067  
      2.496811  5.864485  8.508162     0.000481    0.000857    0.000293  
      8.408275 10.751944  5.953242    -0.000296   -0.002279   -0.000546  
      6.257497  1.446480  8.584338    -0.000658   -0.000476    0.000033  
      2.798530  9.601722  3.586943            0           0           0  
      0.625690  2.147535  1.053227            0           0           0  
      9.966912  0.621640  3.348758            0           0           0  
      2.283891  0.129617  1.075285            0           0           0  
      2.696179  9.475094 13.820040            0           0           0  
      0.586882  2.155075 11.399935            0           0           0  
     10.019160  0.631498 13.948583            0           0           0  
      2.243936  0.136453 11.212437            0           0           0  
      2.772317  9.648523  8.729021            0           0           0  
      0.937802  2.584748  6.106259            0           0           0  
      9.971962  0.690154  8.916577            0           0           0  
      2.119746  0.185064  6.171608            0           0           0  
     11.212032  7.292768  1.008762    -0.000012    0.000075   -0.000161  
      3.372381  4.489478  3.768986    -0.000078    0.000005    0.000154  
      9.590818  9.357017  1.094345     0.000202    0.000327   -0.000295  
      5.200682  2.636779  3.402119     0.000133    0.000071    0.000340  
     11.180541  7.312015 11.443249            0           0           0  
      3.493502  4.422245 13.880630            0           0           0  
      9.568833  9.379409 11.224030            0           0           0  
      5.151091  2.387314 13.949710            0           0           0  
     11.165497  7.545896  6.118256     0.000874   -0.001210    0.000168  
      3.358399  4.511900  8.706897     0.000026    0.000284   -0.000166  
      9.592892  9.656848  6.182513    -0.003041   -0.005903   -0.002919  
      5.189517  2.624240  8.930112     0.000010    0.000606   -0.000394  
      3.620527  7.074597  3.535019    -0.000114    0.000098   -0.001484  
     11.112291  4.702084  0.819058    -0.000049    0.000144    0.000084  
      7.748921  2.076762  3.301635    -0.000585    0.000435    0.000223  
      7.016911  9.731094  0.842134    -0.000173    0.000255   -0.000066  
      3.727651  7.018900 13.702281            0           0           0  
     11.065995  4.721422 11.232286            0           0           0  
      7.729415  1.987595 13.757641            0           0           0  
      6.991570  9.761411 11.122001            0           0           0  
      3.528882  7.116091  8.480708    -0.000140    0.000710   -0.000600  
     10.733044  4.990965  5.943367     0.002374   -0.003829   -0.000240  
      7.726181  2.096407  8.681398    -0.000938    0.001204    0.000407  
      6.985464  9.976760  6.065221     0.000586   -0.004950   -0.003759  
      4.701174  8.747573  0.003437            0           0           0  
     10.077827  3.166376  2.695357    -0.000742    0.000344   -0.000066  
      9.510236  2.686023  0.163236            0           0           0  
      5.175568  9.003541  2.575385     0.000235    0.000131    0.000401  
      4.706117  8.674369 10.287735            0           0           0  
     10.043503  3.116521 13.059050            0           0           0  
      9.466841  2.726564 10.527514            0           0           0  
      5.128848  9.108751 12.855942            0           0           0  
      4.792421  8.770635  5.160659    -0.002478   -0.001557    0.001085  
     10.066899  3.147046  7.963626    -0.001198   -0.000253    0.000047  
      9.538226  2.497754  5.213447     0.000071   -0.002311   -0.000135  
      5.150038  9.097860  7.729483     0.000771    0.001327    0.000511  
      1.938674  5.779175  1.936068            0           0           0  
     12.668830  6.110657  4.470495            0           0           0  
      6.026362  0.656486  1.872615            0           0           0  
      6.085660  0.342075  4.480962            0           0           0  
      1.961992  5.767479 12.195895            0           0           0  
      1.512956  5.993479 14.778880            0           0           0  
      6.058490  0.641548 12.186952            0           0           0  
      6.193571  0.040780 14.742680            0           0           0  
      1.696404  5.777541  7.081967            0           0           0  
      1.372546  6.057640  9.658544            0           0           0  
      6.007707  0.904979  7.070290            0           0           0  
      6.096024  0.180524  9.596446            0           0           0  
     11.637293  9.195790  2.770929            0           0           0  
      3.113996  2.490114  0.189350            0           0           0  
     11.484323  9.383609 13.047045            0           0           0  
      3.043286  2.572078 10.476684            0           0           0  
     11.604064  9.437022  7.879673            0           0           0  
      3.439339  2.318191  5.313647            0           0           0  
     12.089053  9.677173  0.191983            0           0           0  
      2.648570  2.133515  2.776030            0           0           0  
     12.123745  9.606137 10.478416            0           0           0  
      2.667605  2.017939 13.040784            0           0           0  
     12.111960  9.878013  5.292069            0           0           0  
      2.835398  2.019890  7.890028            0           0           0  
     10.655668  3.149098  6.348154    -0.000455   -0.004482    0.000801  
      7.614905  4.880028  5.569490    -0.079009   -0.104701    0.034651  
      7.910816  6.182780  5.732088    -0.015666   -0.114401   -0.008610  
      8.110753  7.069949  4.531331     0.025799   -0.153607   -0.032882  
      7.987190  6.780087  7.112795     0.021097   -0.071980   -0.028763  
      9.784980  5.300072  5.772875     0.004049   -0.009682    0.005097  
      7.426307  4.225659  6.421497    -0.095988   -0.068931    0.058366  
      7.501678  4.441715  4.578905    -0.094582   -0.134934    0.050303  
      8.020869  6.501313  3.596346    -0.007530   -0.169544   -0.020693  
      7.361610  7.874221  4.520314     0.070927   -0.110218   -0.047153  
      9.090944  7.568100  4.543020     0.052545   -0.202749   -0.048835  
      7.704785  6.044488  7.876454    -0.106831   -0.001216   -0.008834  
      7.322198  7.648437  7.204454     0.148792    0.030357   -0.085340  
      8.996569  7.147601  7.346260     0.066934   -0.210053   -0.007421  
 
 165 f/i=    1.409940 THz     8.858915 2PiTHz   47.030536 cm-1     5.831045 meV
             X         Y         Z           dx          dy          dz
     11.134954  8.892619  1.251795     0.000059    0.000207   -0.000039  
      3.650305  2.893329  3.811632    -0.000083   -0.000012    0.000099  
     11.092075  8.927643 11.537254            0           0           0  
      3.597946  2.821286 14.109287            0           0           0  
     11.122394  9.162803  6.362052     0.000047   -0.000123    0.000034  
      3.595939  2.930265  8.990921     0.000327   -0.000088    0.000068  
     12.580774 10.098830  3.744855            0           0           0  
      2.172720  1.732101  1.275331            0           0           0  
     12.522252 10.052505 14.103876            0           0           0  
      2.140244  1.724797 11.528645            0           0           0  
     12.565281 10.122329  9.002363            0           0           0  
      2.296634  1.800386  6.365797            0           0           0  
     10.672068  3.186099  1.185631    -0.000091   -0.000148    0.000152  
      4.082234  8.618628  3.711166    -0.000071   -0.000212    0.000318  
      5.422024  9.675690  1.118640    -0.000205   -0.000068    0.000153  
      9.333940  2.092610  3.683551    -0.000239   -0.000271    0.000350  
     10.633670  3.193371 11.546995            0           0           0  
      4.050589  8.586988 13.950237            0           0           0  
      5.391622  9.687990 11.363259            0           0           0  
      9.313044  2.091015 14.085118            0           0           0  
      4.029535  8.629390  8.809320     0.000412    0.000251   -0.000141  
      5.382841  9.795206  6.277369     0.000172   -0.000057   -0.000358  
      9.318135  2.182668  8.996296     0.000058    0.000176    0.000053  
     12.115696  5.966374  0.786252     0.000033    0.000052    0.000009  
      2.572866  5.848188  3.425402    -0.000037   -0.000095    0.000098  
      8.456379 10.473825  0.785324    -0.000075    0.000038    0.000014  
      6.275540  1.423394  3.281453    -0.000360   -0.000267    0.000185  
     12.063046  5.986543 11.142017            0           0           0  
      2.667865  5.796144 13.654919            0           0           0  
      8.424754 10.513756 11.039966            0           0           0  
      6.284935  1.261397 13.670822            0           0           0  
     11.962116  6.158888  5.915351     0.000114   -0.000356    0.000030  
      2.496811  5.864485  8.508162     0.000259    0.000167    0.000351  
      8.408275 10.751944  5.953242     0.000143   -0.000200    0.000218  
      6.257497  1.446480  8.584338     0.000491    0.000028    0.000228  
      2.798530  9.601722  3.586943            0           0           0  
      0.625690  2.147535  1.053227            0           0           0  
      9.966912  0.621640  3.348758            0           0           0  
      2.283891  0.129617  1.075285            0           0           0  
      2.696179  9.475094 13.820040            0           0           0  
      0.586882  2.155075 11.399935            0           0           0  
     10.019160  0.631498 13.948583            0           0           0  
      2.243936  0.136453 11.212437            0           0           0  
      2.772317  9.648523  8.729021            0           0           0  
      0.937802  2.584748  6.106259            0           0           0  
      9.971962  0.690154  8.916577            0           0           0  
      2.119746  0.185064  6.171608            0           0           0  
     11.212032  7.292768  1.008762    -0.000374   -0.000120    0.000793  
      3.372381  4.489478  3.768986     0.000480    0.000128    0.000025  
      9.590818  9.357017  1.094345    -0.000397   -0.000499    0.000599  
      5.200682  2.636779  3.402119     0.000295    0.000389    0.000166  
     11.180541  7.312015 11.443249            0           0           0  
      3.493502  4.422245 13.880630            0           0           0  
      9.568833  9.379409 11.224030            0           0           0  
      5.151091  2.387314 13.949710            0           0           0  
     11.165497  7.545896  6.118256     0.000874    0.000190   -0.001833  
      3.358399  4.511900  8.706897    -0.000493   -0.000236    0.000060  
      9.592892  9.656848  6.182513     0.000038   -0.000665   -0.001561  
      5.189517  2.624240  8.930112    -0.000080   -0.000592    0.000362  
      3.620527  7.074597  3.535019     0.000259   -0.000213   -0.000219  
     11.112291  4.702084  0.819058    -0.000451    0.000277    0.000986  
      7.748921  2.076762  3.301635    -0.000022   -0.000770   -0.000711  
      7.016911  9.731094  0.842134     0.000085   -0.000426    0.000708  
      3.727651  7.018900 13.702281            0           0           0  
     11.065995  4.721422 11.232286            0           0           0  
      7.729415  1.987595 13.757641            0           0           0  
      6.991570  9.761411 11.122001            0           0           0  
      3.528882  7.116091  8.480708    -0.000173    0.000284   -0.000021  
     10.733044  4.990965  5.943367    -0.000348   -0.000865   -0.004688  
      7.726181  2.096407  8.681398     0.000414   -0.000896    0.000201  
      6.985464  9.976760  6.065221    -0.000086   -0.000201   -0.003011  
      4.701174  8.747573  0.003437            0           0           0  
     10.077827  3.166376  2.695357    -0.000966    0.000299    0.000115  
      9.510236  2.686023  0.163236            0           0           0  
      5.175568  9.003541  2.575385     0.000397   -0.000331    0.000243  
      4.706117  8.674369 10.287735            0           0           0  
     10.043503  3.116521 13.059050            0           0           0  
      9.466841  2.726564 10.527514            0           0           0  
      5.128848  9.108751 12.855942            0           0           0  
      4.792421  8.770635  5.160659     0.000402   -0.000584   -0.000154  
     10.066899  3.147046  7.963626    -0.000054    0.000192   -0.000060  
      9.538226  2.497754  5.213447    -0.000126   -0.000690    0.000428  
      5.150038  9.097860  7.729483    -0.000114    0.000727   -0.000242  
      1.938674  5.779175  1.936068            0           0           0  
     12.668830  6.110657  4.470495            0           0           0  
      6.026362  0.656486  1.872615            0           0           0  
      6.085660  0.342075  4.480962            0           0           0  
      1.961992  5.767479 12.195895            0           0           0  
      1.512956  5.993479 14.778880            0           0           0  
      6.058490  0.641548 12.186952            0           0           0  
      6.193571  0.040780 14.742680            0           0           0  
      1.696404  5.777541  7.081967            0           0           0  
      1.372546  6.057640  9.658544            0           0           0  
      6.007707  0.904979  7.070290            0           0           0  
      6.096024  0.180524  9.596446            0           0           0  
     11.637293  9.195790  2.770929            0           0           0  
      3.113996  2.490114  0.189350            0           0           0  
     11.484323  9.383609 13.047045            0           0           0  
      3.043286  2.572078 10.476684            0           0           0  
     11.604064  9.437022  7.879673            0           0           0  
      3.439339  2.318191  5.313647            0           0           0  
     12.089053  9.677173  0.191983            0           0           0  
      2.648570  2.133515  2.776030            0           0           0  
     12.123745  9.606137 10.478416            0           0           0  
      2.667605  2.017939 13.040784            0           0           0  
     12.111960  9.878013  5.292069            0           0           0  
      2.835398  2.019890  7.890028            0           0           0  
     10.655668  3.149098  6.348154    -0.000095   -0.000118    0.000458  
      7.614905  4.880028  5.569490     0.002571    0.005897   -0.151843  
      7.910816  6.182780  5.732088     0.006274    0.002483   -0.131352  
      8.110753  7.069949  4.531331     0.031086    0.017892   -0.114555  
      7.987190  6.780087  7.112795    -0.013336   -0.011511   -0.125314  
      9.784980  5.300072  5.772875     0.005336   -0.005561   -0.044369  
      7.426307  4.225659  6.421497    -0.013099   -0.003733   -0.162455  
      7.501678  4.441715  4.578905     0.013755    0.018748   -0.159395  
      8.020869  6.501313  3.596346     0.017253    0.037133   -0.124743  
      7.361610  7.874221  4.520314     0.054056    0.039000   -0.099758  
      9.090944  7.568100  4.543020     0.045452   -0.010317   -0.102787  
      7.704785  6.044488  7.876454     0.002207   -0.024760   -0.133599  
      7.322198  7.648437  7.204454    -0.034823   -0.028846   -0.119466  
      8.996569  7.147601  7.346260    -0.024524    0.011533   -0.118675  
 
 Finite differences POTIM=  5.000000000000000E-002

 mean value of Nose-termostat <S>:     1.000 mean value of <T> :     0.000
 mean temperature <T/S>/<1/S>  :     0.000

     LOOP+:  VPU time  301.43: CPU time  303.39
  
  
 General timing and accounting informations for this job:
 ========================================================
  
                  Total CPU time used (sec):   145467.287
                            User time (sec):   144847.604
                          System time (sec):      619.683
                         Elapsed time (sec):   146247.712
  
                   Maximum memory used (kb):           0.
                   Average memory used (kb):           0.
  
                          Minor page faults:     67022896
                          Major page faults:            0
                 Voluntary context switches:        49577
