 Entering Gaussian System, Link 0=g03
 Initial command:
 /opt/gaussian/g03_D1_amd64/g03/l1.exe /home/toon/unief/research/code/work/tamkin/examples/009_ethyl_ethene/ethyl/scan/Gau-1338.inp -scrdir=/home/toon/unief/research/code/work/tamkin/examples/009_ethyl_ethene/ethyl/scan/
 Entering Link 1 = /opt/gaussian/g03_D1_amd64/g03/l1.exe PID=      1340.
  
 Copyright (c) 1988,1990,1992,1993,1995,1998,2003,2004, Gaussian, Inc.
                  All Rights Reserved.
  
 This is the Gaussian(R) 03 program.  It is based on the
 the Gaussian(R) 98 system (copyright 1998, Gaussian, Inc.),
 the Gaussian(R) 94 system (copyright 1995, Gaussian, Inc.),
 the Gaussian 92(TM) system (copyright 1992, Gaussian, Inc.),
 the Gaussian 90(TM) system (copyright 1990, Gaussian, Inc.),
 the Gaussian 88(TM) system (copyright 1988, Gaussian, Inc.),
 the Gaussian 86(TM) system (copyright 1986, Carnegie Mellon
 University), and the Gaussian 82(TM) system (copyright 1983,
 Carnegie Mellon University). Gaussian is a federally registered
 trademark of Gaussian, Inc.
  
 This software contains proprietary and confidential information,
 including trade secrets, belonging to Gaussian, Inc.
  
 This software is provided under written license and may be
 used, copied, transmitted, or stored only in accord with that
 written license.
  
 The following legend is applicable only to US Government
 contracts under FAR:
  
                    RESTRICTED RIGHTS LEGEND
  
 Use, reproduction and disclosure by the US Government is
 subject to restrictions as set forth in subparagraphs (a)
 and (c) of the Commercial Computer Software - Restricted
 Rights clause in FAR 52.227-19.
  
 Gaussian, Inc.
 340 Quinnipiac St., Bldg. 40, Wallingford CT 06492
  
  
 ---------------------------------------------------------------
 Warning -- This program may not be used in any manner that
 competes with the business of Gaussian, Inc. or will provide
 assistance to any competitor of Gaussian, Inc.  The licensee
 of this program is prohibited from giving any competitor of
 Gaussian, Inc. access to this program.  By using this program,
 the user acknowledges that Gaussian, Inc. is engaged in the
 business of creating and licensing software in the field of
 computational chemistry and represents and warrants to the
 licensee that it is not a competitor of Gaussian, Inc. and that
 it will not use this program in any manner prohibited above.
 ---------------------------------------------------------------
  

 Cite this work as:
 Gaussian 03, Revision D.01,
 M. J. Frisch, G. W. Trucks, H. B. Schlegel, G. E. Scuseria, 
 M. A. Robb, J. R. Cheeseman, J. A. Montgomery, Jr., T. Vreven, 
 K. N. Kudin, J. C. Burant, J. M. Millam, S. S. Iyengar, J. Tomasi, 
 V. Barone, B. Mennucci, M. Cossi, G. Scalmani, N. Rega, 
 G. A. Petersson, H. Nakatsuji, M. Hada, M. Ehara, K. Toyota, 
 R. Fukuda, J. Hasegawa, M. Ishida, T. Nakajima, Y. Honda, O. Kitao, 
 H. Nakai, M. Klene, X. Li, J. E. Knox, H. P. Hratchian, J. B. Cross, 
 V. Bakken, C. Adamo, J. Jaramillo, R. Gomperts, R. E. Stratmann, 
 O. Yazyev, A. J. Austin, R. Cammi, C. Pomelli, J. W. Ochterski, 
 P. Y. Ayala, K. Morokuma, G. A. Voth, P. Salvador, J. J. Dannenberg, 
 V. G. Zakrzewski, S. Dapprich, A. D. Daniels, M. C. Strain, 
 O. Farkas, D. K. Malick, A. D. Rabuck, K. Raghavachari, 
 J. B. Foresman, J. V. Ortiz, Q. Cui, A. G. Baboul, S. Clifford, 
 J. Cioslowski, B. B. Stefanov, G. Liu, A. Liashenko, P. Piskorz, 
 I. Komaromi, R. L. Martin, D. J. Fox, T. Keith, M. A. Al-Laham, 
 C. Y. Peng, A. Nanayakkara, M. Challacombe, P. M. W. Gill, 
 B. Johnson, W. Chen, M. W. Wong, C. Gonzalez, and J. A. Pople, 
 Gaussian, Inc., Wallingford CT, 2004.
 
 ******************************************
 Gaussian 03:  AM64L-G03RevD.01 13-Oct-2005
                17-Nov-2009 
 ******************************************
 %chk=gaussian.chk
 %mem=1GB
 %nproc=1
 Will use up to    1 processors via shared memory.
 -----------------------------------------------
 #p B3LYP/6-31g(d) opt(modredundant) maxdisk=5GB
 -----------------------------------------------
 1/14=-1,18=120,26=3,38=1/1,3;
 2/9=110,17=6,18=5,40=1/2;
 3/5=1,6=6,7=1,11=2,16=1,25=1,30=1,74=-5/1,2,3;
 4//1;
 5/5=2,38=5/2;
 6/7=2,8=2,9=2,10=2,28=1/1;
 7//1,2,3,16;
 1/14=-1,18=20/3(3);
 2/9=110/2;
 6/7=2,8=2,9=2,10=2,19=2,28=1/1;
 99//99;
 2/9=110/2;
 3/5=1,6=6,7=1,11=2,16=1,25=1,30=1,74=-5/1,2,3;
 4/5=5,16=3/1;
 5/5=2,38=5/2;
 7//1,2,3,16;
 1/14=-1,18=20/3(-5);
 2/9=110/2;
 6/7=2,8=2,9=2,10=2,19=2,28=1/1;
 99/9=1/99;
 Leave Link    1 at Tue Nov 17 13:26:19 2009, MaxMem=  134217728 cpu:       0.0
 (Enter /opt/gaussian/g03_D1_amd64/g03/l101.exe)
 --------
 no title
 --------
 Symbolic Z-matrix:
 Charge =  0 Multiplicity = 2
 C                     0.74829  -0.00003   0.00004 
 C                    -0.79912  -0.00002  -0.00013 
 H                     1.10573  -0.93845  -0.42615 
 H                     1.1053    0.83836  -0.59984 
 H                     1.1053    0.10048   1.02596 
 H                    -1.35512   0.94499   0.00044 
 H                    -1.35546  -0.94478   0.00058 
 
 The following ModRedundant input section has been read:
 D    4    1    2    6 S  72 5.0000                                            
                    Isotopes and Nuclear Properties:
 (Nuclear quadrupole moments (NQMom) in fm**2, nuclear magnetic moments (NMagM)
  in nuclear magnetons)

  Atom         1           2           3           4           5           6           7
 IAtWgt=          12          12           1           1           1           1           1
 AtmWgt=  12.0000000  12.0000000   1.0078250   1.0078250   1.0078250   1.0078250   1.0078250
 NucSpn=           0           0           1           1           1           1           1
 AtZEff=   0.0000000   0.0000000   0.0000000   0.0000000   0.0000000   0.0000000   0.0000000
 NQMom=    0.0000000   0.0000000   0.0000000   0.0000000   0.0000000   0.0000000   0.0000000
 NMagM=    0.0000000   0.0000000   2.7928460   2.7928460   2.7928460   2.7928460   2.7928460
 Leave Link  101 at Tue Nov 17 13:26:20 2009, MaxMem=  134217728 cpu:       0.0
 (Enter /opt/gaussian/g03_D1_amd64/g03/l103.exe)

 GradGradGradGradGradGradGradGradGradGradGradGradGradGradGradGradGradGrad
 Berny optimization.
 Initialization pass.
                           ----------------------------
                           !    Initial Parameters    !
                           ! (Angstroms and Degrees)  !
 --------------------------                            --------------------------
 ! Name  Definition              Value          Derivative Info.                !
 --------------------------------------------------------------------------------
 ! R1    R(1,2)                  1.5474         estimate D2E/DX2                !
 ! R2    R(1,3)                  1.0909         estimate D2E/DX2                !
 ! R3    R(1,4)                  1.091          estimate D2E/DX2                !
 ! R4    R(1,5)                  1.0909         estimate D2E/DX2                !
 ! R5    R(2,6)                  1.0964         estimate D2E/DX2                !
 ! R6    R(2,7)                  1.0964         estimate D2E/DX2                !
 ! A1    A(2,1,3)              109.1245         estimate D2E/DX2                !
 ! A2    A(2,1,4)              109.0976         estimate D2E/DX2                !
 ! A3    A(2,1,5)              109.1089         estimate D2E/DX2                !
 ! A4    A(3,1,4)              109.8173         estimate D2E/DX2                !
 ! A5    A(3,1,5)              109.843          estimate D2E/DX2                !
 ! A6    A(4,1,5)              109.8287         estimate D2E/DX2                !
 ! A7    A(1,2,6)              120.4706         estimate D2E/DX2                !
 ! A8    A(1,2,7)              120.4923         estimate D2E/DX2                !
 ! A9    A(6,2,7)              119.0371         estimate D2E/DX2                !
 ! D1    D(3,1,2,6)           -155.6105         estimate D2E/DX2                !
 ! D2    D(3,1,2,7)             24.4747         estimate D2E/DX2                !
 ! D3    D(4,1,2,6)            -35.6247         Scan                            !
 ! D4    D(4,1,2,7)            144.4605         estimate D2E/DX2                !
 ! D5    D(5,1,2,6)             84.3656         estimate D2E/DX2                !
 ! D6    D(5,1,2,7)            -95.5492         estimate D2E/DX2                !
 --------------------------------------------------------------------------------
 Trust Radius=3.00D-01 FncErr=1.00D-07 GrdErr=1.00D-06
 Number of optimizations in scan=  73
 Number of steps in this run=  31 maximum allowed number of steps= 100.
 GradGradGradGradGradGradGradGradGradGradGradGradGradGradGradGradGradGrad

 Leave Link  103 at Tue Nov 17 13:26:20 2009, MaxMem=  134217728 cpu:       0.0
 (Enter /opt/gaussian/g03_D1_amd64/g03/l202.exe)
                          Input orientation:                          
 ---------------------------------------------------------------------
 Center     Atomic     Atomic              Coordinates (Angstroms)
 Number     Number      Type              X           Y           Z
 ---------------------------------------------------------------------
    1          6             0        0.748288   -0.000030    0.000044
    2          6             0       -0.799123   -0.000021   -0.000128
    3          1             0        1.105728   -0.938448   -0.426151
    4          1             0        1.105302    0.838359   -0.599843
    5          1             0        1.105298    0.100484    1.025964
    6          1             0       -1.355117    0.944991    0.000443
    7          1             0       -1.355463   -0.944776    0.000582
 ---------------------------------------------------------------------
 SCF Done:  E(UB+HF-LYP) =  -79.1553019677     A.U. after   13 cycles
                          Input orientation:                          
 ---------------------------------------------------------------------
 Center     Atomic     Atomic              Coordinates (Angstroms)
 Number     Number      Type              X           Y           Z
 ---------------------------------------------------------------------
    1          6             0        0.714848   -0.001426   -0.007244
    2          6             0       -0.788289   -0.001800   -0.022951
    3          1             0        1.107635   -0.930325   -0.431343
    4          1             0        1.108144    0.844217   -0.581293
    5          1             0        1.097048    0.089369    1.019537
    6          1             0       -1.340285    0.931299   -0.008146
    7          1             0       -1.344189   -0.930775    0.032351
 ---------------------------------------------------------------------
 SCF Done:  E(UB+HF-LYP) =  -79.1575889188     A.U. after   12 cycles
                          Input orientation:                          
 ---------------------------------------------------------------------
 Center     Atomic     Atomic              Coordinates (Angstroms)
 Number     Number      Type              X           Y           Z
 ---------------------------------------------------------------------
    1          6             0        0.701377   -0.001684   -0.010342
    2          6             0       -0.787373   -0.002003   -0.029052
    3          1             0        1.115004   -0.926544   -0.429324
    4          1             0        1.115256    0.843520   -0.574797
    5          1             0        1.103595    0.086401    1.014715
    6          1             0       -1.344567    0.928845   -0.009327
    7          1             0       -1.348379   -0.927976    0.039038
 ---------------------------------------------------------------------
 SCF Done:  E(UB+HF-LYP) =  -79.1578425505     A.U. after   12 cycles
                          Input orientation:                          
 ---------------------------------------------------------------------
 Center     Atomic     Atomic              Coordinates (Angstroms)
 Number     Number      Type              X           Y           Z
 ---------------------------------------------------------------------
    1          6             0        0.701386   -0.001922   -0.014762
    2          6             0       -0.788271   -0.003671   -0.049999
    3          1             0        1.121393   -0.920158   -0.442330
    4          1             0        1.121205    0.852025   -0.561641
    5          1             0        1.092816    0.071146    1.016106
    6          1             0       -1.345072    0.927536   -0.022291
    7          1             0       -1.348544   -0.924398    0.075827
 ---------------------------------------------------------------------
 SCF Done:  E(UB+HF-LYP) =  -79.1578647989     A.U. after   11 cycles
                          Input orientation:                          
 ---------------------------------------------------------------------
 Center     Atomic     Atomic              Coordinates (Angstroms)
 Number     Number      Type              X           Y           Z
 ---------------------------------------------------------------------
    1          6             0        0.701430   -0.001192   -0.013561
    2          6             0       -0.787698   -0.002814   -0.046346
    3          1             0        1.119947   -0.920594   -0.440634
    4          1             0        1.120302    0.850402   -0.564304
    5          1             0        1.095046    0.072099    1.016649
    6          1             0       -1.346132    0.927725   -0.021386
    7          1             0       -1.347983   -0.925067    0.070492
 ---------------------------------------------------------------------
 SCF Done:  E(UB+HF-LYP) =  -79.1578677454     A.U. after    9 cycles
    -- Stationary point found.
                          Input orientation:                          
 ---------------------------------------------------------------------
 Center     Atomic     Atomic              Coordinates (Angstroms)
 Number     Number      Type              X           Y           Z
 ---------------------------------------------------------------------
    1          6             0        0.701872   -0.008216   -0.022923
    2          6             0       -0.787675   -0.003428   -0.033374
    3          1             0        1.125552   -0.926514   -0.447523
    4          1             0        1.116374    0.864135   -0.543550
    5          1             0        1.094779    0.069105    1.007178
    6          1             0       -1.343964    0.928732   -0.042249
    7          1             0       -1.352025   -0.923254    0.083352
 ---------------------------------------------------------------------
 SCF Done:  E(UB+HF-LYP) =  -79.1576926312     A.U. after   14 cycles
                          Input orientation:                          
 ---------------------------------------------------------------------
 Center     Atomic     Atomic              Coordinates (Angstroms)
 Number     Number      Type              X           Y           Z
 ---------------------------------------------------------------------
    1          6             0        0.702082   -0.000666   -0.013730
    2          6             0       -0.786764   -0.003104   -0.041988
    3          1             0        1.119177   -0.909033   -0.464728
    4          1             0        1.118163    0.865911   -0.540931
    5          1             0        1.097941    0.042566    1.018626
    6          1             0       -1.348803    0.925141   -0.070261
    7          1             0       -1.346882   -0.920256    0.113922
 ---------------------------------------------------------------------
 SCF Done:  E(UB+HF-LYP) =  -79.1578608225     A.U. after   10 cycles
                          Input orientation:                          
 ---------------------------------------------------------------------
 Center     Atomic     Atomic              Coordinates (Angstroms)
 Number     Number      Type              X           Y           Z
 ---------------------------------------------------------------------
    1          6             0        0.701819   -0.000391   -0.013098
    2          6             0       -0.787423   -0.003122   -0.043497
    3          1             0        1.120438   -0.907746   -0.466653
    4          1             0        1.118557    0.866288   -0.539816
    5          1             0        1.096760    0.039993    1.018488
    6          1             0       -1.349005    0.925205   -0.072644
    7          1             0       -1.346233   -0.919668    0.118131
 ---------------------------------------------------------------------
 SCF Done:  E(UB+HF-LYP) =  -79.1578637700     A.U. after    8 cycles
    -- Stationary point found.
                          Input orientation:                          
 ---------------------------------------------------------------------
 Center     Atomic     Atomic              Coordinates (Angstroms)
 Number     Number      Type              X           Y           Z
 ---------------------------------------------------------------------
    1          6             0        0.701940   -0.007164   -0.022734
    2          6             0       -0.787613   -0.003050   -0.030432
    3          1             0        1.125533   -0.913703   -0.473574
    4          1             0        1.115195    0.879226   -0.518742
    5          1             0        1.096333    0.037737    1.008638
    6          1             0       -1.346692    0.925131   -0.092908
    7          1             0       -1.349783   -0.917618    0.130663
 ---------------------------------------------------------------------
 SCF Done:  E(UB+HF-LYP) =  -79.1576753277     A.U. after   11 cycles
                          Input orientation:                          
 ---------------------------------------------------------------------
 Center     Atomic     Atomic              Coordinates (Angstroms)
 Number     Number      Type              X           Y           Z
 ---------------------------------------------------------------------
    1          6             0        0.701500    0.000123   -0.012380
    2          6             0       -0.787753   -0.002911   -0.037514
    3          1             0        1.120036   -0.895684   -0.490098
    4          1             0        1.117006    0.880287   -0.516536
    5          1             0        1.099145    0.011648    1.018376
    6          1             0       -1.350476    0.921040   -0.120505
    7          1             0       -1.344544   -0.913943    0.159568
 ---------------------------------------------------------------------
 SCF Done:  E(UB+HF-LYP) =  -79.1578454817     A.U. after   11 cycles
                          Input orientation:                          
 ---------------------------------------------------------------------
 Center     Atomic     Atomic              Coordinates (Angstroms)
 Number     Number      Type              X           Y           Z
 ---------------------------------------------------------------------
    1          6             0        0.701683    0.000297   -0.012126
    2          6             0       -0.787663   -0.003049   -0.038822
    3          1             0        1.120528   -0.894590   -0.491437
    4          1             0        1.116930    0.880668   -0.515862
    5          1             0        1.098923    0.009611    1.018981
    6          1             0       -1.351008    0.920602   -0.122348
    7          1             0       -1.344481   -0.912981    0.162525
 ---------------------------------------------------------------------
 SCF Done:  E(UB+HF-LYP) =  -79.1578461403     A.U. after    8 cycles
    -- Stationary point found.
                          Input orientation:                          
 ---------------------------------------------------------------------
 Center     Atomic     Atomic              Coordinates (Angstroms)
 Number     Number      Type              X           Y           Z
 ---------------------------------------------------------------------
    1          6             0        0.701930   -0.006046   -0.022031
    2          6             0       -0.787668   -0.002111   -0.025777
    3          1             0        1.124922   -0.900555   -0.498409
    4          1             0        1.114134    0.892890   -0.494634
    5          1             0        1.098630    0.007617    1.009192
    6          1             0       -1.349351    0.919008   -0.142240
    7          1             0       -1.347685   -0.910244    0.174810
 ---------------------------------------------------------------------
 SCF Done:  E(UB+HF-LYP) =  -79.1576482810     A.U. after   11 cycles
                          Input orientation:                          
 ---------------------------------------------------------------------
 Center     Atomic     Atomic              Coordinates (Angstroms)
 Number     Number      Type              X           Y           Z
 ---------------------------------------------------------------------
    1          6             0        0.702425    0.001323   -0.010494
    2          6             0       -0.787172   -0.002121   -0.030492
    3          1             0        1.119447   -0.882147   -0.513606
    4          1             0        1.115661    0.893423   -0.493999
    5          1             0        1.103055   -0.017760    1.018374
    6          1             0       -1.353616    0.912426   -0.168950
    7          1             0       -1.344887   -0.904585    0.200079
 ---------------------------------------------------------------------
 SCF Done:  E(UB+HF-LYP) =  -79.1578181567     A.U. after   11 cycles
                          Input orientation:                          
 ---------------------------------------------------------------------
 Center     Atomic     Atomic              Coordinates (Angstroms)
 Number     Number      Type              X           Y           Z
 ---------------------------------------------------------------------
    1          6             0        0.701949    0.001004   -0.010698
    2          6             0       -0.787380   -0.002531   -0.032942
    3          1             0        1.120193   -0.881019   -0.515405
    4          1             0        1.115233    0.894033   -0.492359
    5          1             0        1.101750   -0.019779    1.018705
    6          1             0       -1.353075    0.912912   -0.170989
    7          1             0       -1.343757   -0.904061    0.204599
 ---------------------------------------------------------------------
 SCF Done:  E(UB+HF-LYP) =  -79.1578194585     A.U. after    8 cycles
    -- Stationary point found.
                          Input orientation:                          
 ---------------------------------------------------------------------
 Center     Atomic     Atomic              Coordinates (Angstroms)
 Number     Number      Type              X           Y           Z
 ---------------------------------------------------------------------
    1          6             0        0.701999   -0.004899   -0.020812
    2          6             0       -0.787659   -0.000623   -0.019922
    3          1             0        1.123889   -0.886955   -0.522411
    4          1             0        1.113203    0.905429   -0.470987
    5          1             0        1.101429   -0.021525    1.008923
    6          1             0       -1.351871    0.910237   -0.190511
    7          1             0       -1.346077   -0.901105    0.216630
 ---------------------------------------------------------------------
 SCF Done:  E(UB+HF-LYP) =  -79.1576180270     A.U. after   11 cycles
                          Input orientation:                          
 ---------------------------------------------------------------------
 Center     Atomic     Atomic              Coordinates (Angstroms)
 Number     Number      Type              X           Y           Z
 ---------------------------------------------------------------------
    1          6             0        0.701902    0.001943   -0.008859
    2          6             0       -0.788239   -0.000367   -0.024004
    3          1             0        1.118428   -0.868033   -0.536840
    4          1             0        1.114402    0.905328   -0.470763
    5          1             0        1.106475   -0.046567    1.017733
    6          1             0       -1.355473    0.903717   -0.216883
    7          1             0       -1.342581   -0.895461    0.240528
 ---------------------------------------------------------------------
 SCF Done:  E(UB+HF-LYP) =  -79.1577878012     A.U. after   11 cycles
                          Input orientation:                          
 ---------------------------------------------------------------------
 Center     Atomic     Atomic              Coordinates (Angstroms)
 Number     Number      Type              X           Y           Z
 ---------------------------------------------------------------------
    1          6             0        0.701939    0.001998   -0.008994
    2          6             0       -0.787566   -0.001062   -0.025788
    3          1             0        1.118805   -0.867081   -0.538314
    4          1             0        1.114141    0.906194   -0.469559
    5          1             0        1.104936   -0.048288    1.017788
    6          1             0       -1.354851    0.903126   -0.218391
    7          1             0       -1.342492   -0.894327    0.244168
 ---------------------------------------------------------------------
 SCF Done:  E(UB+HF-LYP) =  -79.1577885674     A.U. after    8 cycles
    -- Stationary point found.
                          Input orientation:                          
 ---------------------------------------------------------------------
 Center     Atomic     Atomic              Coordinates (Angstroms)
 Number     Number      Type              X           Y           Z
 ---------------------------------------------------------------------
    1          6             0        0.702024   -0.003610   -0.019285
    2          6             0       -0.787664    0.001571   -0.013130
    3          1             0        1.122181   -0.872932   -0.545624
    4          1             0        1.112612    0.916997   -0.447779
    5          1             0        1.104319   -0.049906    1.007940
    6          1             0       -1.354062    0.899049   -0.237618
    7          1             0       -1.344496   -0.890611    0.256406
 ---------------------------------------------------------------------
 SCF Done:  E(UB+HF-LYP) =  -79.1575884903     A.U. after   11 cycles
                          Input orientation:                          
 ---------------------------------------------------------------------
 Center     Atomic     Atomic              Coordinates (Angstroms)
 Number     Number      Type              X           Y           Z
 ---------------------------------------------------------------------
    1          6             0        0.702344    0.002422   -0.006761
    2          6             0       -0.787708    0.001068   -0.017548
    3          1             0        1.117963   -0.852972   -0.560467
    4          1             0        1.112732    0.917124   -0.447070
    5          1             0        1.109335   -0.075264    1.016029
    6          1             0       -1.356863    0.891007   -0.264269
    7          1             0       -1.342890   -0.882826    0.280997
 ---------------------------------------------------------------------
 SCF Done:  E(UB+HF-LYP) =  -79.1577594709     A.U. after   11 cycles
                          Input orientation:                          
 ---------------------------------------------------------------------
 Center     Atomic     Atomic              Coordinates (Angstroms)
 Number     Number      Type              X           Y           Z
 ---------------------------------------------------------------------
    1          6             0        0.702132    0.002761   -0.006935
    2          6             0       -0.787600    0.000726   -0.018407
    3          1             0        1.117658   -0.852333   -0.561117
    4          1             0        1.113043    0.917627   -0.446616
    5          1             0        1.108238   -0.076346    1.016120
    6          1             0       -1.356250    0.890705   -0.265107
    7          1             0       -1.342309   -0.882580    0.282974
 ---------------------------------------------------------------------
 SCF Done:  E(UB+HF-LYP) =  -79.1577599098     A.U. after    8 cycles
    -- Stationary point found.
                          Input orientation:                          
 ---------------------------------------------------------------------
 Center     Atomic     Atomic              Coordinates (Angstroms)
 Number     Number      Type              X           Y           Z
 ---------------------------------------------------------------------
    1          6             0        0.702067   -0.002313   -0.017501
    2          6             0       -0.787658    0.004236   -0.006085
    3          1             0        1.120262   -0.858147   -0.568544
    4          1             0        1.112308    0.927840   -0.424577
    5          1             0        1.107038   -0.077951    1.006292
    6          1             0       -1.355795    0.885356   -0.283962
    7          1             0       -1.343309   -0.878462    0.295289
 ---------------------------------------------------------------------
 SCF Done:  E(UB+HF-LYP) =  -79.1575676363     A.U. after   11 cycles
                          Input orientation:                          
 ---------------------------------------------------------------------
 Center     Atomic     Atomic              Coordinates (Angstroms)
 Number     Number      Type              X           Y           Z
 ---------------------------------------------------------------------
    1          6             0        0.702183    0.003886   -0.004978
    2          6             0       -0.787648    0.003899   -0.009935
    3          1             0        1.115128   -0.837993   -0.582408
    4          1             0        1.112511    0.927971   -0.424438
    5          1             0        1.111385   -0.103245    1.013805
    6          1             0       -1.357639    0.876410   -0.309873
    7          1             0       -1.341007   -0.870368    0.318738
 ---------------------------------------------------------------------
 SCF Done:  E(UB+HF-LYP) =  -79.1577402338     A.U. after   10 cycles
                          Input orientation:                          
 ---------------------------------------------------------------------
 Center     Atomic     Atomic              Coordinates (Angstroms)
 Number     Number      Type              X           Y           Z
 ---------------------------------------------------------------------
    1          6             0        0.702228    0.003819   -0.004864
    2          6             0       -0.787614    0.003282   -0.010782
    3          1             0        1.115669   -0.837097   -0.583362
    4          1             0        1.112582    0.928362   -0.423782
    5          1             0        1.111043   -0.104138    1.013786
    6          1             0       -1.357324    0.875911   -0.310832
    7          1             0       -1.341671   -0.869580    0.320747
 ---------------------------------------------------------------------
 SCF Done:  E(UB+HF-LYP) =  -79.1577405654     A.U. after    7 cycles
    -- Stationary point found.
                          Input orientation:                          
 ---------------------------------------------------------------------
 Center     Atomic     Atomic              Coordinates (Angstroms)
 Number     Number      Type              X           Y           Z
 ---------------------------------------------------------------------
    1          6             0        0.702081   -0.000927   -0.015556
    2          6             0       -0.787646    0.007528    0.001289
    3          1             0        1.117830   -0.842806   -0.590974
    4          1             0        1.112461    0.937937   -0.401491
    5          1             0        1.109540   -0.105496    1.003969
    6          1             0       -1.357129    0.869278   -0.329221
    7          1             0       -1.342224   -0.864955    0.332896
 ---------------------------------------------------------------------
 SCF Done:  E(UB+HF-LYP) =  -79.1575595954     A.U. after   10 cycles
                          Input orientation:                          
 ---------------------------------------------------------------------
 Center     Atomic     Atomic              Coordinates (Angstroms)
 Number     Number      Type              X           Y           Z
 ---------------------------------------------------------------------
    1          6             0        0.702190    0.004216   -0.002609
    2          6             0       -0.787459    0.006498   -0.001770
    3          1             0        1.113208   -0.822128   -0.604525
    4          1             0        1.111500    0.937985   -0.401641
    5          1             0        1.114441   -0.129485    1.010769
    6          1             0       -1.357059    0.859368   -0.354155
    7          1             0       -1.341909   -0.855894    0.354842
 ---------------------------------------------------------------------
 SCF Done:  E(UB+HF-LYP) =  -79.1577322805     A.U. after   11 cycles
                          Input orientation:                          
 ---------------------------------------------------------------------
 Center     Atomic     Atomic              Coordinates (Angstroms)
 Number     Number      Type              X           Y           Z
 ---------------------------------------------------------------------
    1          6             0        0.702271    0.004717   -0.002622
    2          6             0       -0.787615    0.006164   -0.003000
    3          1             0        1.113452   -0.821149   -0.605325
    4          1             0        1.112220    0.938474   -0.400874
    5          1             0        1.113857   -0.131308    1.010760
    6          1             0       -1.357545    0.858767   -0.355560
    7          1             0       -1.341728   -0.855108    0.357532
 ---------------------------------------------------------------------
 SCF Done:  E(UB+HF-LYP) =  -79.1577327871     A.U. after    8 cycles
    -- Stationary point found.
                          Input orientation:                          
 ---------------------------------------------------------------------
 Center     Atomic     Atomic              Coordinates (Angstroms)
 Number     Number      Type              X           Y           Z
 ---------------------------------------------------------------------
    1          6             0        0.702031    0.000460   -0.013495
    2          6             0       -0.787640    0.011306    0.008761
    3          1             0        1.114995   -0.826864   -0.612983
    4          1             0        1.112939    0.947405   -0.378356
    5          1             0        1.111869   -0.132538    1.000974
    6          1             0       -1.357862    0.850878   -0.373414
    7          1             0       -1.341419   -0.850089    0.369424
 ---------------------------------------------------------------------
 SCF Done:  E(UB+HF-LYP) =  -79.1575643900     A.U. after   10 cycles
                          Input orientation:                          
 ---------------------------------------------------------------------
 Center     Atomic     Atomic              Coordinates (Angstroms)
 Number     Number      Type              X           Y           Z
 ---------------------------------------------------------------------
    1          6             0        0.702274    0.006025   -0.000154
    2          6             0       -0.787416    0.010297    0.005147
    3          1             0        1.109366   -0.805244   -0.626485
    4          1             0        1.113096    0.947781   -0.378112
    5          1             0        1.116259   -0.157665    1.007097
    6          1             0       -1.358040    0.839076   -0.398777
    7          1             0       -1.340627   -0.839711    0.392195
 ---------------------------------------------------------------------
 SCF Done:  E(UB+HF-LYP) =  -79.1577371509     A.U. after   14 cycles
                          Input orientation:                          
 ---------------------------------------------------------------------
 Center     Atomic     Atomic              Coordinates (Angstroms)
 Number     Number      Type              X           Y           Z
 ---------------------------------------------------------------------
    1          6             0        0.702258    0.005696   -0.000338
    2          6             0       -0.787571    0.009719    0.004637
    3          1             0        1.110461   -0.804669   -0.626981
    4          1             0        1.112623    0.947948   -0.377751
    5          1             0        1.116258   -0.158085    1.007072
    6          1             0       -1.357595    0.839185   -0.399212
    7          1             0       -1.341521   -0.839235    0.393483
 ---------------------------------------------------------------------
 SCF Done:  E(UB+HF-LYP) =  -79.1577374859     A.U. after    8 cycles
    -- Stationary point found.
                          Input orientation:                          
 ---------------------------------------------------------------------
 Center     Atomic     Atomic              Coordinates (Angstroms)
 Number     Number      Type              X           Y           Z
 ---------------------------------------------------------------------
    1          6             0        0.701914    0.001805   -0.011412
    2          6             0       -0.787631    0.015515    0.015995
    3          1             0        1.111833   -0.810208   -0.634786
    4          1             0        1.113852    0.956298   -0.354964
    5          1             0        1.113818   -0.159263    0.997312
    6          1             0       -1.358092    0.830128   -0.416578
    7          1             0       -1.340782   -0.833715    0.405344
 ---------------------------------------------------------------------
 SCF Done:  E(UB+HF-LYP) =  -79.1575810825     A.U. after   11 cycles
                          Input orientation:                          
 ---------------------------------------------------------------------
 Center     Atomic     Atomic              Coordinates (Angstroms)
 Number     Number      Type              X           Y           Z
 ---------------------------------------------------------------------
    1          6             0        0.702225    0.006611    0.001826
    2          6             0       -0.787584    0.014078    0.012813
    3          1             0        1.107093   -0.788206   -0.647634
    4          1             0        1.113172    0.956666   -0.355034
    5          1             0        1.118696   -0.183746    1.002727
    6          1             0       -1.357038    0.817829   -0.440965
    7          1             0       -1.341651   -0.822673    0.427179
 ---------------------------------------------------------------------
 SCF Done:  E(UB+HF-LYP) =  -79.1577538424     A.U. after   10 cycles
                          Input orientation:                          
 ---------------------------------------------------------------------
 Center     Atomic     Atomic              Coordinates (Angstroms)
 Number     Number      Type              X           Y           Z
 ---------------------------------------------------------------------
    1          6             0        0.702154    0.006541    0.001837
    2          6             0       -0.787577    0.013376    0.011932
    3          1             0        1.107707   -0.787258   -0.648492
    4          1             0        1.112946    0.956991   -0.354333
    5          1             0        1.118302   -0.184821    1.002650
    6          1             0       -1.356650    0.817360   -0.441943
    7          1             0       -1.341968   -0.821631    0.429261
 ---------------------------------------------------------------------
 SCF Done:  E(UB+HF-LYP) =  -79.1577540591     A.U. after    8 cycles
    -- Stationary point found.
                          Input orientation:                          
 ---------------------------------------------------------------------
 Center     Atomic     Atomic              Coordinates (Angstroms)
 Number     Number      Type              X           Y           Z
 ---------------------------------------------------------------------
    1          6             0        0.701730    0.003107   -0.009376
    2          6             0       -0.787628    0.020035    0.022881
    3          1             0        1.108531   -0.792776   -0.656376
    4          1             0        1.115065    0.964678   -0.331261
    5          1             0        1.115327   -0.185793    0.992959
    6          1             0       -1.357707    0.807064   -0.458679
    7          1             0       -1.340406   -0.815757    0.440763
 ---------------------------------------------------------------------
 SCF Done:  E(UB+HF-LYP) =  -79.1576069981     A.U. after   11 cycles
                          Input orientation:                          
 ---------------------------------------------------------------------
 Center     Atomic     Atomic              Coordinates (Angstroms)
 Number     Number      Type              X           Y           Z
 ---------------------------------------------------------------------
    1          6             0        0.702048    0.007303    0.003906
    2          6             0       -0.787735    0.017886    0.019114
    3          1             0        1.104203   -0.769878   -0.669324
    4          1             0        1.114233    0.965219   -0.330659
    5          1             0        1.120400   -0.210358    0.997535
    6          1             0       -1.355911    0.793425   -0.482842
    7          1             0       -1.342325   -0.803037    0.463180
 ---------------------------------------------------------------------
 SCF Done:  E(UB+HF-LYP) =  -79.1577805944     A.U. after   11 cycles
                          Input orientation:                          
 ---------------------------------------------------------------------
 Center     Atomic     Atomic              Coordinates (Angstroms)
 Number     Number      Type              X           Y           Z
 ---------------------------------------------------------------------
    1          6             0        0.702030    0.007320    0.003880
    2          6             0       -0.787574    0.017294    0.018517
    3          1             0        1.104638   -0.769032   -0.669948
    4          1             0        1.113904    0.965536   -0.330278
    5          1             0        1.119822   -0.211428    0.997508
    6          1             0       -1.355459    0.793072   -0.483669
    7          1             0       -1.342448   -0.802204    0.464900
 ---------------------------------------------------------------------
 SCF Done:  E(UB+HF-LYP) =  -79.1577808646     A.U. after    7 cycles
    -- Stationary point found.
                          Input orientation:                          
 ---------------------------------------------------------------------
 Center     Atomic     Atomic              Coordinates (Angstroms)
 Number     Number      Type              X           Y           Z
 ---------------------------------------------------------------------
    1          6             0        0.701520    0.004328   -0.007488
    2          6             0       -0.787619    0.024717    0.029060
    3          1             0        1.105146   -0.774454   -0.677894
    4          1             0        1.116696    0.972581   -0.306973
    5          1             0        1.116278   -0.212257    0.987889
    6          1             0       -1.356882    0.781613   -0.499745
    7          1             0       -1.340226   -0.795970    0.476062
 ---------------------------------------------------------------------
 SCF Done:  E(UB+HF-LYP) =  -79.1576390179     A.U. after   11 cycles
                          Input orientation:                          
 ---------------------------------------------------------------------
 Center     Atomic     Atomic              Coordinates (Angstroms)
 Number     Number      Type              X           Y           Z
 ---------------------------------------------------------------------
    1          6             0        0.701904    0.008110    0.005761
    2          6             0       -0.787626    0.022109    0.025493
    3          1             0        1.101168   -0.750820   -0.690347
    4          1             0        1.115150    0.973285   -0.306622
    5          1             0        1.121354   -0.237066    0.991730
    6          1             0       -1.353924    0.766988   -0.523316
    7          1             0       -1.343114   -0.782047    0.498211
 ---------------------------------------------------------------------
 SCF Done:  E(UB+HF-LYP) =  -79.1578118314     A.U. after   10 cycles
                          Input orientation:                          
 ---------------------------------------------------------------------
 Center     Atomic     Atomic              Coordinates (Angstroms)
 Number     Number      Type              X           Y           Z
 ---------------------------------------------------------------------
    1          6             0        0.701896    0.008052    0.005738
    2          6             0       -0.787559    0.021447    0.024624
    3          1             0        1.101382   -0.750144   -0.691075
    4          1             0        1.115152    0.973582   -0.305808
    5          1             0        1.120994   -0.237817    0.991614
    6          1             0       -1.353801    0.766531   -0.524110
    7          1             0       -1.343151   -0.781092    0.499928
 ---------------------------------------------------------------------
 SCF Done:  E(UB+HF-LYP) =  -79.1578120272     A.U. after    7 cycles
    -- Stationary point found.
                          Input orientation:                          
 ---------------------------------------------------------------------
 Center     Atomic     Atomic              Coordinates (Angstroms)
 Number     Number      Type              X           Y           Z
 ---------------------------------------------------------------------
    1          6             0        0.701309    0.005475   -0.005781
    2          6             0       -0.787606    0.029547    0.034600
    3          1             0        1.101620   -0.755395   -0.699182
    4          1             0        1.118668    0.979986   -0.282132
    5          1             0        1.116816   -0.238502    0.982074
    6          1             0       -1.355630    0.753884   -0.539551
    7          1             0       -1.340264   -0.774435    0.510884
 ---------------------------------------------------------------------
 SCF Done:  E(UB+HF-LYP) =  -79.1576687923     A.U. after   11 cycles
                          Input orientation:                          
 ---------------------------------------------------------------------
 Center     Atomic     Atomic              Coordinates (Angstroms)
 Number     Number      Type              X           Y           Z
 ---------------------------------------------------------------------
    1          6             0        0.701847    0.008481    0.007321
    2          6             0       -0.787629    0.026207    0.030306
    3          1             0        1.097616   -0.731080   -0.711735
    4          1             0        1.117328    0.980753   -0.280949
    5          1             0        1.121923   -0.262963    0.985175
    6          1             0       -1.352364    0.738056   -0.562553
    7          1             0       -1.343808   -0.758895    0.533347
 ---------------------------------------------------------------------
 SCF Done:  E(UB+HF-LYP) =  -79.1578398493     A.U. after   11 cycles
                          Input orientation:                          
 ---------------------------------------------------------------------
 Center     Atomic     Atomic              Coordinates (Angstroms)
 Number     Number      Type              X           Y           Z
 ---------------------------------------------------------------------
    1          6             0        0.701796    0.008525    0.007295
    2          6             0       -0.787544    0.025413    0.029546
    3          1             0        1.098257   -0.730163   -0.712365
    4          1             0        1.116855    0.981165   -0.280320
    5          1             0        1.121558   -0.264276    0.984933
    6          1             0       -1.351945    0.737496   -0.563504
    7          1             0       -1.344063   -0.757601    0.535325
 ---------------------------------------------------------------------
 SCF Done:  E(UB+HF-LYP) =  -79.1578401195     A.U. after    7 cycles
    -- Stationary point found.
                          Input orientation:                          
 ---------------------------------------------------------------------
 Center     Atomic     Atomic              Coordinates (Angstroms)
 Number     Number      Type              X           Y           Z
 ---------------------------------------------------------------------
    1          6             0        0.701125    0.006432   -0.004366
    2          6             0       -0.787592    0.034198    0.039042
    3          1             0        1.098344   -0.735291   -0.720505
    4          1             0        1.120916    0.986930   -0.256379
    5          1             0        1.116783   -0.264854    0.975445
    6          1             0       -1.354091    0.723738   -0.578228
    7          1             0       -1.340572   -0.750595    0.545902
 ---------------------------------------------------------------------
 SCF Done:  E(UB+HF-LYP) =  -79.1576894989     A.U. after   11 cycles
                          Input orientation:                          
 ---------------------------------------------------------------------
 Center     Atomic     Atomic              Coordinates (Angstroms)
 Number     Number      Type              X           Y           Z
 ---------------------------------------------------------------------
    1          6             0        0.701637    0.009099    0.008709
    2          6             0       -0.787563    0.029946    0.034730
    3          1             0        1.094692   -0.710515   -0.732554
    4          1             0        1.118227    0.988185   -0.254869
    5          1             0        1.122565   -0.289834    0.977356
    6          1             0       -1.349362    0.706863   -0.600837
    7          1             0       -1.345282   -0.733185    0.568376
 ---------------------------------------------------------------------
 SCF Done:  E(UB+HF-LYP) =  -79.1578601628     A.U. after   11 cycles
                          Input orientation:                          
 ---------------------------------------------------------------------
 Center     Atomic     Atomic              Coordinates (Angstroms)
 Number     Number      Type              X           Y           Z
 ---------------------------------------------------------------------
    1          6             0        0.701679    0.008864    0.008581
    2          6             0       -0.787541    0.029062    0.033544
    3          1             0        1.095364   -0.709243   -0.733527
    4          1             0        1.118442    0.988344   -0.253930
    5          1             0        1.121934   -0.290900    0.977294
    6          1             0       -1.349542    0.706095   -0.601730
    7          1             0       -1.345423   -0.731663    0.570680
 ---------------------------------------------------------------------
 SCF Done:  E(UB+HF-LYP) =  -79.1578605746     A.U. after    8 cycles
    -- Stationary point found.
                          Input orientation:                          
 ---------------------------------------------------------------------
 Center     Atomic     Atomic              Coordinates (Angstroms)
 Number     Number      Type              X           Y           Z
 ---------------------------------------------------------------------
    1          6             0        0.700970    0.007149   -0.003291
    2          6             0       -0.787591    0.038416    0.042227
    3          1             0        1.095539   -0.713997   -0.741898
    4          1             0        1.123278    0.993383   -0.229531
    5          1             0        1.116258   -0.291427    0.967923
    6          1             0       -1.352316    0.691132   -0.615747
    7          1             0       -1.341226   -0.724096    0.581229
 ---------------------------------------------------------------------
 SCF Done:  E(UB+HF-LYP) =  -79.1576966513     A.U. after   11 cycles
                          Input orientation:                          
 ---------------------------------------------------------------------
 Center     Atomic     Atomic              Coordinates (Angstroms)
 Number     Number      Type              X           Y           Z
 ---------------------------------------------------------------------
    1          6             0        0.701672    0.008694    0.009050
    2          6             0       -0.787506    0.033434    0.036713
    3          1             0        1.093271   -0.688193   -0.753943
    4          1             0        1.121244    0.994360   -0.227307
    5          1             0        1.120777   -0.316575    0.969189
    6          1             0       -1.348724    0.673117   -0.637208
    7          1             0       -1.345821   -0.704278    0.604417
 ---------------------------------------------------------------------
 SCF Done:  E(UB+HF-LYP) =  -79.1578675046     A.U. after   11 cycles
                          Input orientation:                          
 ---------------------------------------------------------------------
 Center     Atomic     Atomic              Coordinates (Angstroms)
 Number     Number      Type              X           Y           Z
 ---------------------------------------------------------------------
    1          6             0        0.701625    0.008715    0.009260
    2          6             0       -0.787527    0.031993    0.035652
    3          1             0        1.093675   -0.686606   -0.755090
    4          1             0        1.120581    0.994862   -0.226084
    5          1             0        1.121055   -0.318233    0.968740
    6          1             0       -1.347766    0.671938   -0.638777
    7          1             0       -1.346730   -0.702109    0.607210
 ---------------------------------------------------------------------
 SCF Done:  E(UB+HF-LYP) =  -79.1578682785     A.U. after    8 cycles
    -- Stationary point found.
                          Input orientation:                          
 ---------------------------------------------------------------------
 Center     Atomic     Atomic              Coordinates (Angstroms)
 Number     Number      Type              X           Y           Z
 ---------------------------------------------------------------------
    1          6             0        0.700857    0.007580   -0.002654
    2          6             0       -0.787602    0.041983    0.043931
    3          1             0        1.093529   -0.691333   -0.763410
    4          1             0        1.125846    0.999227   -0.201429
    5          1             0        1.115050   -0.318420    0.959424
    6          1             0       -1.350668    0.655978   -0.651991
    7          1             0       -1.342100   -0.694455    0.617039
 ---------------------------------------------------------------------
 SCF Done:  E(UB+HF-LYP) =  -79.1576861286     A.U. after   14 cycles
                          Input orientation:                          
 ---------------------------------------------------------------------
 Center     Atomic     Atomic              Coordinates (Angstroms)
 Number     Number      Type              X           Y           Z
 ---------------------------------------------------------------------
    1          6             0        0.701596    0.008685    0.009786
    2          6             0       -0.787609    0.034985    0.037804
    3          1             0        1.090572   -0.664534   -0.775596
    4          1             0        1.122646    1.000783   -0.197625
    5          1             0        1.121372   -0.343994    0.959243
    6          1             0       -1.345202    0.636340   -0.673703
    7          1             0       -1.348461   -0.671707    0.641003
 ---------------------------------------------------------------------
 SCF Done:  E(UB+HF-LYP) =  -79.1578592342     A.U. after   11 cycles
                          Input orientation:                          
 ---------------------------------------------------------------------
 Center     Atomic     Atomic              Coordinates (Angstroms)
 Number     Number      Type              X           Y           Z
 ---------------------------------------------------------------------
    1          6             0        0.701612    0.008352    0.009623
    2          6             0       -0.787559    0.033627    0.036243
    3          1             0        1.092391   -0.662434   -0.776834
    4          1             0        1.122399    1.000977   -0.196504
    5          1             0        1.120296   -0.346148    0.958908
    6          1             0       -1.345556    0.634963   -0.674870
    7          1             0       -1.348669   -0.668779    0.644345
 ---------------------------------------------------------------------
 SCF Done:  E(UB+HF-LYP) =  -79.1578601332     A.U. after    8 cycles
    -- Stationary point found.
                          Input orientation:                          
 ---------------------------------------------------------------------
 Center     Atomic     Atomic              Coordinates (Angstroms)
 Number     Number      Type              X           Y           Z
 ---------------------------------------------------------------------
    1          6             0        0.700823    0.007653   -0.002504
    2          6             0       -0.787633    0.044177    0.043692
    3          1             0        1.092695   -0.666812   -0.785262
    4          1             0        1.128273    1.004526   -0.171487
    5          1             0        1.113299   -0.346273    0.949708
    6          1             0       -1.349213    0.617915   -0.687189
    7          1             0       -1.343332   -0.660627    0.653953
 ---------------------------------------------------------------------
 SCF Done:  E(UB+HF-LYP) =  -79.1576582292     A.U. after   11 cycles
                          Input orientation:                          
 ---------------------------------------------------------------------
 Center     Atomic     Atomic              Coordinates (Angstroms)
 Number     Number      Type              X           Y           Z
 ---------------------------------------------------------------------
    1          6             0        0.701533    0.007527    0.009129
    2          6             0       -0.787580    0.035158    0.035655
    3          1             0        1.092599   -0.638056   -0.797839
    4          1             0        1.124668    1.005994   -0.166033
    5          1             0        1.118396   -0.373605    0.948188
    6          1             0       -1.345066    0.596326   -0.708233
    7          1             0       -1.349638   -0.632785    0.680045
 ---------------------------------------------------------------------
 SCF Done:  E(UB+HF-LYP) =  -79.1578336853     A.U. after   11 cycles
                          Input orientation:                          
 ---------------------------------------------------------------------
 Center     Atomic     Atomic              Coordinates (Angstroms)
 Number     Number      Type              X           Y           Z
 ---------------------------------------------------------------------
    1          6             0        0.701636    0.007342    0.009271
    2          6             0       -0.787592    0.033281    0.034397
    3          1             0        1.093281   -0.635842   -0.799135
    4          1             0        1.123889    1.006413   -0.164612
    5          1             0        1.118524   -0.375676    0.947568
    6          1             0       -1.344185    0.594693   -0.709867
    7          1             0       -1.350640   -0.629653    0.683288
 ---------------------------------------------------------------------
 SCF Done:  E(UB+HF-LYP) =  -79.1578345967     A.U. after    8 cycles
    -- Stationary point found.
                          Input orientation:                          
 ---------------------------------------------------------------------
 Center     Atomic     Atomic              Coordinates (Angstroms)
 Number     Number      Type              X           Y           Z
 ---------------------------------------------------------------------
    1          6             0        0.700892    0.007211   -0.002939
    2          6             0       -0.787675    0.044268    0.041157
    3          1             0        1.093587   -0.639958   -0.807604
    4          1             0        1.130181    1.009186   -0.139204
    5          1             0        1.111019   -0.375522    0.938462
    6          1             0       -1.348177    0.576617   -0.721371
    7          1             0       -1.344914   -0.621243    0.692410
 ---------------------------------------------------------------------
 SCF Done:  E(UB+HF-LYP) =  -79.1576154028     A.U. after   11 cycles
                          Input orientation:                          
 ---------------------------------------------------------------------
 Center     Atomic     Atomic              Coordinates (Angstroms)
 Number     Number      Type              X           Y           Z
 ---------------------------------------------------------------------
    1          6             0        0.701746    0.006183    0.008357
    2          6             0       -0.787572    0.031957    0.031677
    3          1             0        1.093645   -0.609117   -0.820552
    4          1             0        1.125304    1.011028   -0.131210
    5          1             0        1.117305   -0.404344    0.935092
    6          1             0       -1.343225    0.552607   -0.742574
    7          1             0       -1.352291   -0.587755    0.720121
 ---------------------------------------------------------------------
 SCF Done:  E(UB+HF-LYP) =  -79.1577936503     A.U. after   11 cycles
                          Input orientation:                          
 ---------------------------------------------------------------------
 Center     Atomic     Atomic              Coordinates (Angstroms)
 Number     Number      Type              X           Y           Z
 ---------------------------------------------------------------------
    1          6             0        0.701802    0.005659    0.008282
    2          6             0       -0.787622    0.029564    0.029911
    3          1             0        1.095900   -0.606137   -0.822202
    4          1             0        1.124297    1.011289   -0.129471
    5          1             0        1.116557   -0.407222    0.934237
    6          1             0       -1.343073    0.550454   -0.744136
    7          1             0       -1.352948   -0.583048    0.724291
 ---------------------------------------------------------------------
 SCF Done:  E(UB+HF-LYP) =  -79.1577947216     A.U. after    8 cycles
                          Input orientation:                          
 ---------------------------------------------------------------------
 Center     Atomic     Atomic              Coordinates (Angstroms)
 Number     Number      Type              X           Y           Z
 ---------------------------------------------------------------------
    1          6             0        0.701809    0.005521    0.008186
    2          6             0       -0.787609    0.028885    0.029291
    3          1             0        1.096380   -0.605563   -0.822583
    4          1             0        1.124072    1.011386   -0.128801
    5          1             0        1.116419   -0.407835    0.934008
    6          1             0       -1.343212    0.549973   -0.744511
    7          1             0       -1.352946   -0.581808    0.725321
 ---------------------------------------------------------------------
 SCF Done:  E(UB+HF-LYP) =  -79.1577947475     A.U. after    7 cycles
    -- Stationary point found.
                          Input orientation:                          
 ---------------------------------------------------------------------
 Center     Atomic     Atomic              Coordinates (Angstroms)
 Number     Number      Type              X           Y           Z
 ---------------------------------------------------------------------
    1          6             0        0.701124    0.006034   -0.004091
    2          6             0       -0.787710    0.040794    0.035676
    3          1             0        1.096871   -0.609758   -0.830816
    4          1             0        1.130941    1.013170   -0.103516
    5          1             0        1.108236   -0.406991    0.925199
    6          1             0       -1.347816    0.531250   -0.754787
    7          1             0       -1.346733   -0.573939    0.733246
 ---------------------------------------------------------------------
 SCF Done:  E(UB+HF-LYP) =  -79.1575661569     A.U. after   11 cycles
                          Input orientation:                          
 ---------------------------------------------------------------------
 Center     Atomic     Atomic              Coordinates (Angstroms)
 Number     Number      Type              X           Y           Z
 ---------------------------------------------------------------------
    1          6             0        0.701988    0.003551    0.007203
    2          6             0       -0.787705    0.024754    0.025032
    3          1             0        1.098282   -0.575519   -0.844443
    4          1             0        1.124458    1.014835   -0.093119
    5          1             0        1.115317   -0.438270    0.919737
    6          1             0       -1.342672    0.503953   -0.775882
    7          1             0       -1.354755   -0.532745    0.762384
 ---------------------------------------------------------------------
 SCF Done:  E(UB+HF-LYP) =  -79.1577491152     A.U. after   11 cycles
                          Input orientation:                          
 ---------------------------------------------------------------------
 Center     Atomic     Atomic              Coordinates (Angstroms)
 Number     Number      Type              X           Y           Z
 ---------------------------------------------------------------------
    1          6             0        0.702049    0.002710    0.006548
    2          6             0       -0.787631    0.019859    0.021600
    3          1             0        1.101636   -0.571275   -0.846890
    4          1             0        1.122312    1.015415   -0.089049
    5          1             0        1.114423   -0.442671    0.917945
    6          1             0       -1.342761    0.500490   -0.778205
    7          1             0       -1.355115   -0.523971    0.768962
 ---------------------------------------------------------------------
 SCF Done:  E(UB+HF-LYP) =  -79.1577514915     A.U. after    8 cycles
                          Input orientation:                          
 ---------------------------------------------------------------------
 Center     Atomic     Atomic              Coordinates (Angstroms)
 Number     Number      Type              X           Y           Z
 ---------------------------------------------------------------------
    1          6             0        0.702085    0.002446    0.006385
    2          6             0       -0.787605    0.018395    0.020558
    3          1             0        1.102417   -0.570106   -0.847603
    4          1             0        1.121763    1.015583   -0.087740
    5          1             0        1.114270   -0.443825    0.917428
    6          1             0       -1.342850    0.499491   -0.778903
    7          1             0       -1.355167   -0.521424    0.770786
 ---------------------------------------------------------------------
 SCF Done:  E(UB+HF-LYP) =  -79.1577516266     A.U. after    8 cycles
    -- Stationary point found.
                          Input orientation:                          
 ---------------------------------------------------------------------
 Center     Atomic     Atomic              Coordinates (Angstroms)
 Number     Number      Type              X           Y           Z
 ---------------------------------------------------------------------
    1          6             0        0.701579    0.003574   -0.005980
    2          6             0       -0.787689    0.030527    0.025988
    3          1             0        1.103634   -0.573748   -0.855933
    4          1             0        1.128916    1.016397   -0.061997
    5          1             0        1.105417   -0.442832    0.908732
    6          1             0       -1.348201    0.479645   -0.788330
    7          1             0       -1.348742   -0.513004    0.778431
 ---------------------------------------------------------------------
 SCF Done:  E(UB+HF-LYP) =  -79.1575351944     A.U. after   12 cycles
                          Input orientation:                          
 ---------------------------------------------------------------------
 Center     Atomic     Atomic              Coordinates (Angstroms)
 Number     Number      Type              X           Y           Z
 ---------------------------------------------------------------------
    1          6             0        0.702198   -0.000560    0.005173
    2          6             0       -0.787590    0.008180    0.013883
    3          1             0        1.106413   -0.534357   -0.870550
    4          1             0        1.119096    1.017966   -0.047554
    5          1             0        1.113720   -0.478580    0.900030
    6          1             0       -1.342115    0.447431   -0.809704
    7          1             0       -1.356810   -0.459521    0.809632
 ---------------------------------------------------------------------
 SCF Done:  E(UB+HF-LYP) =  -79.1577276675     A.U. after   11 cycles
                          Input orientation:                          
 ---------------------------------------------------------------------
 Center     Atomic     Atomic              Coordinates (Angstroms)
 Number     Number      Type              X           Y           Z
 ---------------------------------------------------------------------
    1          6             0        0.702247   -0.002297    0.004120
    2          6             0       -0.787623   -0.000602    0.008782
    3          1             0        1.111002   -0.528010   -0.874105
    4          1             0        1.115060    1.018542   -0.040066
    5          1             0        1.113459   -0.484695    0.896702
    6          1             0       -1.342566    0.441834   -0.812768
    7          1             0       -1.356666   -0.444213    0.818246
 ---------------------------------------------------------------------
 SCF Done:  E(UB+HF-LYP) =  -79.1577323995     A.U. after   10 cycles
                          Input orientation:                          
 ---------------------------------------------------------------------
 Center     Atomic     Atomic              Coordinates (Angstroms)
 Number     Number      Type              X           Y           Z
 ---------------------------------------------------------------------
    1          6             0        0.702263   -0.002844    0.003845
    2          6             0       -0.787586   -0.003358    0.007171
    3          1             0        1.112266   -0.525972   -0.875223
    4          1             0        1.113731    1.018737   -0.037702
    5          1             0        1.113434   -0.486683    0.895707
    6          1             0       -1.342670    0.440040   -0.813813
    7          1             0       -1.356525   -0.439361    0.820927
 ---------------------------------------------------------------------
 SCF Done:  E(UB+HF-LYP) =  -79.1577327028     A.U. after   13 cycles
    -- Stationary point found.
                          Input orientation:                          
 ---------------------------------------------------------------------
 Center     Atomic     Atomic              Coordinates (Angstroms)
 Number     Number      Type              X           Y           Z
 ---------------------------------------------------------------------
    1          6             0        0.702077   -0.000955   -0.008575
    2          6             0       -0.787622    0.009130    0.011763
    3          1             0        1.114441   -0.529151   -0.883496
    4          1             0        1.121214    1.018412   -0.011705
    5          1             0        1.103971   -0.485298    0.887231
    6          1             0       -1.349041    0.419156   -0.822231
    7          1             0       -1.350127   -0.430736    0.827923
 ---------------------------------------------------------------------
 SCF Done:  E(UB+HF-LYP) =  -79.1575566576     A.U. after   11 cycles
                          Input orientation:                          
 ---------------------------------------------------------------------
 Center     Atomic     Atomic              Coordinates (Angstroms)
 Number     Number      Type              X           Y           Z
 ---------------------------------------------------------------------
    1          6             0        0.702038   -0.007095    0.002283
    2          6             0       -0.787703   -0.019808    0.000055
    3          1             0        1.117120   -0.486230   -0.897756
    4          1             0        1.107158    1.019206    0.007053
    5          1             0        1.114612   -0.523708    0.874785
    6          1             0       -1.342041    0.383130   -0.841902
    7          1             0       -1.356272   -0.364937    0.856393
 ---------------------------------------------------------------------
 SCF Done:  E(UB+HF-LYP) =  -79.1577509798     A.U. after   12 cycles
                          Input orientation:                          
 ---------------------------------------------------------------------
 Center     Atomic     Atomic              Coordinates (Angstroms)
 Number     Number      Type              X           Y           Z
 ---------------------------------------------------------------------
    1          6             0        0.701989   -0.008392    0.001592
    2          6             0       -0.787680   -0.026890   -0.003316
    3          1             0        1.119877   -0.481451   -0.900099
    4          1             0        1.103359    1.019422    0.012981
    5          1             0        1.115078   -0.528355    0.872143
    6          1             0       -1.342330    0.378733   -0.843915
    7          1             0       -1.355380   -0.352507    0.861524
 ---------------------------------------------------------------------
 SCF Done:  E(UB+HF-LYP) =  -79.1577527700     A.U. after   10 cycles
                          Input orientation:                          
 ---------------------------------------------------------------------
 Center     Atomic     Atomic              Coordinates (Angstroms)
 Number     Number      Type              X           Y           Z
 ---------------------------------------------------------------------
    1          6             0        0.702042   -0.008189    0.001646
    2          6             0       -0.787640   -0.025836   -0.002955
    3          1             0        1.119519   -0.482252   -0.899723
    4          1             0        1.103869    1.019426    0.012195
    5          1             0        1.114969   -0.527692    0.872564
    6          1             0       -1.342469    0.379443   -0.843665
    7          1             0       -1.355378   -0.354341    0.860850
 ---------------------------------------------------------------------
 SCF Done:  E(UB+HF-LYP) =  -79.1577528196     A.U. after    7 cycles
    -- Stationary point found.
                          Input orientation:                          
 ---------------------------------------------------------------------
 Center     Atomic     Atomic              Coordinates (Angstroms)
 Number     Number      Type              X           Y           Z
 ---------------------------------------------------------------------
    1          6             0        0.702134   -0.005512   -0.010818
    2          6             0       -0.787609   -0.012985    0.000869
    3          1             0        1.122654   -0.484971   -0.907910
    4          1             0        1.111705    1.017981    0.038307
    5          1             0        1.104938   -0.525846    0.864331
    6          1             0       -1.349763    0.357568   -0.850987
    7          1             0       -1.349145   -0.345675    0.867119
 ---------------------------------------------------------------------
 SCF Done:  E(UB+HF-LYP) =  -79.1576136502     A.U. after   11 cycles
                          Input orientation:                          
 ---------------------------------------------------------------------
 Center     Atomic     Atomic              Coordinates (Angstroms)
 Number     Number      Type              X           Y           Z
 ---------------------------------------------------------------------
    1          6             0        0.701602   -0.010732    0.000444
    2          6             0       -0.787611   -0.035925   -0.005757
    3          1             0        1.120078   -0.448209   -0.917553
    4          1             0        1.100144    1.017899    0.052051
    5          1             0        1.116690   -0.558391    0.853314
    6          1             0       -1.342645    0.326206   -0.865675
    7          1             0       -1.353345   -0.290289    0.884087
 ---------------------------------------------------------------------
 SCF Done:  E(UB+HF-LYP) =  -79.1577943176     A.U. after   11 cycles
                          Input orientation:                          
 ---------------------------------------------------------------------
 Center     Atomic     Atomic              Coordinates (Angstroms)
 Number     Number      Type              X           Y           Z
 ---------------------------------------------------------------------
    1          6             0        0.701742   -0.011538    0.000183
[...]
 ---------------------------------------------------------------------
 SCF Done:  E(UB+HF-LYP) =  -79.1577295520     A.U. after   11 cycles
                          Input orientation:                          
 ---------------------------------------------------------------------
 Center     Atomic     Atomic              Coordinates (Angstroms)
 Number     Number      Type              X           Y           Z
 ---------------------------------------------------------------------
    1          6             0        0.702149    0.000597   -0.007638
    2          6             0       -0.787672    0.003035   -0.009399
    3          1             0        1.113314    0.809170   -0.620554
    4          1             0        1.114090    0.114603    1.008731
    5          1             0        1.111857   -0.947685   -0.390435
    6          1             0       -1.342392   -0.753726    0.536713
    7          1             0       -1.356433    0.774566   -0.516506
 ---------------------------------------------------------------------
 SCF Done:  E(UB+HF-LYP) =  -79.1577340295     A.U. after   10 cycles
                          Input orientation:                          
 ---------------------------------------------------------------------
 Center     Atomic     Atomic              Coordinates (Angstroms)
 Number     Number      Type              X           Y           Z
 ---------------------------------------------------------------------
    1          6             0        0.702214    0.000832   -0.007214
    2          6             0       -0.787623    0.004509   -0.007121
    3          1             0        1.113356    0.810278   -0.619041
    4          1             0        1.115071    0.112684    1.008926
    5          1             0        1.110852   -0.946954   -0.392495
    6          1             0       -1.342484   -0.752726    0.538293
    7          1             0       -1.356473    0.771936   -0.520437
 ---------------------------------------------------------------------
 SCF Done:  E(UB+HF-LYP) =  -79.1577343205     A.U. after    8 cycles
    -- Stationary point found.
                          Input orientation:                          
 ---------------------------------------------------------------------
 Center     Atomic     Atomic              Coordinates (Angstroms)
 Number     Number      Type              X           Y           Z
 ---------------------------------------------------------------------
    1          6             0        0.701931    0.012917   -0.010231
    2          6             0       -0.787834   -0.001859   -0.018576
    3          1             0        1.122444    0.818381   -0.620948
    4          1             0        1.108615    0.086733    1.011909
    5          1             0        1.108246   -0.937962   -0.390317
    6          1             0       -1.335935   -0.741101    0.557597
    7          1             0       -1.362553    0.763450   -0.528522
 ---------------------------------------------------------------------
 SCF Done:  E(UB+HF-LYP) =  -79.1575451655     A.U. after   11 cycles
                          Input orientation:                          
 ---------------------------------------------------------------------
 Center     Atomic     Atomic              Coordinates (Angstroms)
 Number     Number      Type              X           Y           Z
 ---------------------------------------------------------------------
    1          6             0        0.702259    0.002933   -0.004165
    2          6             0       -0.787595    0.014174    0.005228
    3          1             0        1.113950    0.833698   -0.586080
    4          1             0        1.119858    0.069588    1.012778
    5          1             0        1.105546   -0.929931   -0.432390
    6          1             0       -1.341704   -0.715289    0.587917
    7          1             0       -1.357400    0.725387   -0.582377
 ---------------------------------------------------------------------
 SCF Done:  E(UB+HF-LYP) =  -79.1577388411     A.U. after   14 cycles
                          Input orientation:                          
 ---------------------------------------------------------------------
 Center     Atomic     Atomic              Coordinates (Angstroms)
 Number     Number      Type              X           Y           Z
 ---------------------------------------------------------------------
    1          6             0        0.702123    0.004137   -0.001972
    2          6             0       -0.787509    0.022372    0.015546
    3          1             0        1.114123    0.838980   -0.578252
    4          1             0        1.124794    0.060064    1.013117
    5          1             0        1.099825   -0.925843   -0.442174
    6          1             0       -1.342040   -0.709399    0.594914
    7          1             0       -1.356403    0.710249   -0.600268
 ---------------------------------------------------------------------
 SCF Done:  E(UB+HF-LYP) =  -79.1577435693     A.U. after   11 cycles
                          Input orientation:                          
 ---------------------------------------------------------------------
 Center     Atomic     Atomic              Coordinates (Angstroms)
 Number     Number      Type              X           Y           Z
 ---------------------------------------------------------------------
    1          6             0        0.702177    0.004036   -0.002010
    2          6             0       -0.787474    0.021681    0.015068
    3          1             0        1.113976    0.838696   -0.578770
    4          1             0        1.124621    0.060739    1.013139
    5          1             0        1.100168   -0.925987   -0.441786
    6          1             0       -1.342423   -0.709788    0.594583
    7          1             0       -1.356133    0.711182   -0.599311
 ---------------------------------------------------------------------
 SCF Done:  E(UB+HF-LYP) =  -79.1577436425     A.U. after    7 cycles
    -- Stationary point found.
                          Input orientation:                          
 ---------------------------------------------------------------------
 Center     Atomic     Atomic              Coordinates (Angstroms)
 Number     Number      Type              X           Y           Z
 ---------------------------------------------------------------------
    1          6             0        0.702217    0.016143   -0.004240
    2          6             0       -0.787629    0.014442    0.003955
    3          1             0        1.122431    0.846990   -0.580433
    4          1             0        1.118549    0.035086    1.014893
    5          1             0        1.098582   -0.916936   -0.438976
    6          1             0       -1.337043   -0.697412    0.612527
    7          1             0       -1.362195    0.702245   -0.606814
 ---------------------------------------------------------------------
 SCF Done:  E(UB+HF-LYP) =  -79.1575934455     A.U. after   11 cycles
                          Input orientation:                          
 ---------------------------------------------------------------------
 Center     Atomic     Atomic              Coordinates (Angstroms)
 Number     Number      Type              X           Y           Z
 ---------------------------------------------------------------------
    1          6             0        0.701871    0.006475    0.000497
    2          6             0       -0.787386    0.031076    0.024287
    3          1             0        1.116019    0.859786   -0.547022
    4          1             0        1.126750    0.019602    1.014836
    5          1             0        1.094603   -0.907210   -0.479213
    6          1             0       -1.342345   -0.670280    0.639926
    7          1             0       -1.354599    0.661111   -0.652400
 ---------------------------------------------------------------------
 SCF Done:  E(UB+HF-LYP) =  -79.1577822346     A.U. after   12 cycles
                          Input orientation:                          
 ---------------------------------------------------------------------
 Center     Atomic     Atomic              Coordinates (Angstroms)
 Number     Number      Type              X           Y           Z
 ---------------------------------------------------------------------
    1          6             0        0.701855    0.006525    0.001328
    2          6             0       -0.787407    0.034359    0.027462
    3          1             0        1.116329    0.861578   -0.543467
    4          1             0        1.128473    0.016376    1.014874
    5          1             0        1.092240   -0.905477   -0.483269
    6          1             0       -1.342333   -0.667510    0.642594
    7          1             0       -1.354244    0.654707   -0.658612
 ---------------------------------------------------------------------
 SCF Done:  E(UB+HF-LYP) =  -79.1577832966     A.U. after    9 cycles
    -- Stationary point found.
                          Input orientation:                          
 ---------------------------------------------------------------------
 Center     Atomic     Atomic              Coordinates (Angstroms)
 Number     Number      Type              X           Y           Z
 ---------------------------------------------------------------------
    1          6             0        0.702150    0.018470   -0.000337
    2          6             0       -0.787533    0.025771    0.016328
    3          1             0        1.124073    0.869798   -0.545234
    4          1             0        1.122564   -0.008425    1.015576
    5          1             0        1.091712   -0.896618   -0.479637
    6          1             0       -1.337940   -0.654667    0.659095
    7          1             0       -1.360112    0.646231   -0.664879
 ---------------------------------------------------------------------
 SCF Done:  E(UB+HF-LYP) =  -79.1576478687     A.U. after   11 cycles
                          Input orientation:                          
 ---------------------------------------------------------------------
 Center     Atomic     Atomic              Coordinates (Angstroms)
 Number     Number      Type              X           Y           Z
 ---------------------------------------------------------------------
    1          6             0        0.702089    0.006593    0.002496
    2          6             0       -0.787404    0.036259    0.028019
    3          1             0        1.117847    0.877783   -0.515613
    4          1             0        1.127753   -0.015969    1.015339
    5          1             0        1.091036   -0.888308   -0.514523
    6          1             0       -1.343561   -0.629381    0.681366
    7          1             0       -1.352847    0.613582   -0.696172
 ---------------------------------------------------------------------
 SCF Done:  E(UB+HF-LYP) =  -79.1578238689     A.U. after   11 cycles
                          Input orientation:                          
 ---------------------------------------------------------------------
 Center     Atomic     Atomic              Coordinates (Angstroms)
 Number     Number      Type              X           Y           Z
 ---------------------------------------------------------------------
    1          6             0        0.701662    0.008095    0.003107
    2          6             0       -0.787364    0.041533    0.032609
    3          1             0        1.119102    0.880112   -0.512611
    4          1             0        1.128577   -0.021354    1.014994
    5          1             0        1.087920   -0.886139   -0.518042
    6          1             0       -1.342809   -0.626599    0.683758
    7          1             0       -1.352176    0.604911   -0.702905
 ---------------------------------------------------------------------
 SCF Done:  E(UB+HF-LYP) =  -79.1578255427     A.U. after    9 cycles
                          Input orientation:                          
 ---------------------------------------------------------------------
 Center     Atomic     Atomic              Coordinates (Angstroms)
 Number     Number      Type              X           Y           Z
 ---------------------------------------------------------------------
    1          6             0        0.701744    0.007772    0.002933
    2          6             0       -0.787340    0.039890    0.031175
    3          1             0        1.118672    0.879397   -0.513860
    4          1             0        1.128316   -0.019764    1.015104
    5          1             0        1.088896   -0.886903   -0.516602
    6          1             0       -1.342955   -0.627665    0.682795
    7          1             0       -1.352419    0.607833   -0.700634
 ---------------------------------------------------------------------
 SCF Done:  E(UB+HF-LYP) =  -79.1578258540     A.U. after    8 cycles
    -- Stationary point found.
                          Input orientation:                          
 ---------------------------------------------------------------------
 Center     Atomic     Atomic              Coordinates (Angstroms)
 Number     Number      Type              X           Y           Z
 ---------------------------------------------------------------------
    1          6             0        0.702070    0.019826    0.001977
    2          6             0       -0.787466    0.031335    0.021260
    3          1             0        1.125818    0.888108   -0.514898
    4          1             0        1.123059   -0.045079    1.014832
    5          1             0        1.088373   -0.877745   -0.513192
    6          1             0       -1.339116   -0.613629    0.698564
    7          1             0       -1.357826    0.597743   -0.707633
 ---------------------------------------------------------------------
 SCF Done:  E(UB+HF-LYP) =  -79.1576815744     A.U. after   11 cycles
                          Input orientation:                          
 ---------------------------------------------------------------------
 Center     Atomic     Atomic              Coordinates (Angstroms)
 Number     Number      Type              X           Y           Z
 ---------------------------------------------------------------------
    1          6             0        0.701883    0.008100    0.003691
    2          6             0       -0.787324    0.040954    0.030650
    3          1             0        1.120454    0.894273   -0.487117
    4          1             0        1.126626   -0.051377    1.014349
    5          1             0        1.088494   -0.869358   -0.545429
    6          1             0       -1.344050   -0.588588    0.718150
    7          1             0       -1.351170    0.566555   -0.733382
 ---------------------------------------------------------------------
 SCF Done:  E(UB+HF-LYP) =  -79.1578549249     A.U. after   11 cycles
                          Input orientation:                          
 ---------------------------------------------------------------------
 Center     Atomic     Atomic              Coordinates (Angstroms)
 Number     Number      Type              X           Y           Z
 ---------------------------------------------------------------------
    1          6             0        0.701671    0.008404    0.004001
    2          6             0       -0.787285    0.043154    0.032475
    3          1             0        1.120786    0.895302   -0.485441
    4          1             0        1.127175   -0.053553    1.014159
    5          1             0        1.087148   -0.868236   -0.547333
    6          1             0       -1.344020   -0.586963    0.719311
    7          1             0       -1.350561    0.562450   -0.736262
 ---------------------------------------------------------------------
 SCF Done:  E(UB+HF-LYP) =  -79.1578553461     A.U. after    9 cycles
    -- Stationary point found.
                          Input orientation:                          
 ---------------------------------------------------------------------
 Center     Atomic     Atomic              Coordinates (Angstroms)
 Number     Number      Type              X           Y           Z
 ---------------------------------------------------------------------
    1          6             0        0.702038    0.020323    0.003527
    2          6             0       -0.787417    0.033446    0.022804
    3          1             0        1.127093    0.903945   -0.486704
    4          1             0        1.122321   -0.078154    1.013042
    5          1             0        1.087205   -0.859344   -0.543174
    6          1             0       -1.340815   -0.572556    0.733661
    7          1             0       -1.355512    0.552899   -0.742245
 ---------------------------------------------------------------------
 SCF Done:  E(UB+HF-LYP) =  -79.1576960816     A.U. after   11 cycles
                          Input orientation:                          
 ---------------------------------------------------------------------
 Center     Atomic     Atomic              Coordinates (Angstroms)
 Number     Number      Type              X           Y           Z
 ---------------------------------------------------------------------
    1          6             0        0.701687    0.008313    0.004351
    2          6             0       -0.787272    0.041441    0.030305
    3          1             0        1.121555    0.908495   -0.460592
    4          1             0        1.125014   -0.082929    1.012409
    5          1             0        1.088614   -0.850990   -0.573184
    6          1             0       -1.345762   -0.547741    0.750866
    7          1             0       -1.348924    0.523969   -0.763244
 ---------------------------------------------------------------------
 SCF Done:  E(UB+HF-LYP) =  -79.1578675270     A.U. after   11 cycles
                          Input orientation:                          
 ---------------------------------------------------------------------
 Center     Atomic     Atomic              Coordinates (Angstroms)
 Number     Number      Type              X           Y           Z
 ---------------------------------------------------------------------
    1          6             0        0.701662    0.008264    0.004570
    2          6             0       -0.787261    0.043094    0.031289
    3          1             0        1.122084    0.909133   -0.458849
    4          1             0        1.125424   -0.084305    1.012330
    5          1             0        1.087547   -0.850050   -0.574930
    6          1             0       -1.345637   -0.546251    0.751867
    7          1             0       -1.348905    0.520674   -0.765367
 ---------------------------------------------------------------------
 SCF Done:  E(UB+HF-LYP) =  -79.1578678425     A.U. after    8 cycles
    -- Stationary point found.
                          Input orientation:                          
 ---------------------------------------------------------------------
 Center     Atomic     Atomic              Coordinates (Angstroms)
 Number     Number      Type              X           Y           Z
 ---------------------------------------------------------------------
    1          6             0        0.701662    0.008264    0.004570
    2          6             0       -0.787261    0.043094    0.031289
    3          1             0        1.122084    0.909133   -0.458849
    4          1             0        1.125424   -0.084305    1.012330
    5          1             0        1.087547   -0.850050   -0.574930
    6          1             0       -1.345637   -0.546251    0.751867
    7          1             0       -1.348905    0.520674   -0.765367
 ---------------------------------------------------------------------
