no title                                                                
Freq      UB3LYP                                                      6-31G(d)            
Number of atoms                            I               13
Charge                                     I                0
Multiplicity                               I                2
Number of electrons                        I               33
Number of alpha electrons                  I               17
Number of beta electrons                   I               16
Number of basis functions                  I               78
Number of independant functions            I               78
Number of point charges in /Mol/           I                0
Number of translation vectors              I                0
Info1-9                                    I   N=           9
          24          22           0           0           0         100
           6          18        -502
Num ILSW                                   I              100
ILSW                                       I   N=         100
           1           1           0           1           2           0
           0           0           0           0         402      200000
           0           0           0           0           0           0
           0      800000           0           0           1           0
           1           0           0           0     1000000           0
           0           0      100000           0          -1           0
           0           0           0           0           0           0
           0           0           0           1           0           0
           0           0           1      720000      810000           0
           0           0           0           0           0           0
           0           0           0           0           0           0
           0           0           0           0           0           0
           0           0           0           0           0           0
           0           0           0           0           0           0
           0           0           0           0           0           0
           0           0           0           0           0           0
           0           0           0           0
Number of contracted shells                I               34
Highest angular momentum                   I                2
Largest degree of contraction              I                6
Number of primitive shells                 I               80
Pure/Cartesian d shells                    I                1
Pure/Cartesian f shells                    I                0
Virial Ratio                               R      2.010417159541445E+00
SCF Energy                                 R     -1.577373950980233E+02
Total Energy                               R     -1.577373950980233E+02
S**2                                       R      7.800691904915258E-01
S**2 after annihilation                    R      7.501822409347824E-01
RMS Force                                  R      9.072720855471864E-06
RMS Density                                R      6.180170378870466E-09
Atomic numbers                             I   N=          13
           6           6           6           6           1           1
           1           1           1           1           1           1
           1
Nuclear charges                            R   N=          13
  6.00000000E+00  6.00000000E+00  6.00000000E+00  6.00000000E+00  1.00000000E+00
  1.00000000E+00  1.00000000E+00  1.00000000E+00  1.00000000E+00  1.00000000E+00
  1.00000000E+00  1.00000000E+00  1.00000000E+00
Current cartesian coordinates              R   N=          39
  3.18879749E+00 -1.12152970E+00  2.09717698E-01  1.95993834E+00  1.31003218E+00
 -5.43535001E-01 -2.26329414E+00  1.00618719E+00  6.77542196E-01 -3.36781201E+00
 -1.06919043E+00 -3.54342249E-01  5.18621234E+00 -1.19536479E+00 -3.81749430E-01
  2.23711502E+00 -2.74297997E+00 -6.60661898E-01  3.15941017E+00 -1.39312704E+00
  2.26435368E+00  2.40374112E+00  3.00227870E+00  5.39096206E-01  1.63335906E+00
  1.63859983E+00 -2.54553822E+00 -2.55659649E+00  2.86536761E+00 -1.42760131E-01
 -1.62284990E+00  9.85656221E-01  2.62855605E+00 -4.24240896E+00 -1.01373084E+00
 -2.21198916E+00 -3.30376053E+00 -2.89969514E+00  5.74397036E-01
Int Atom Types                             I   N=          13
           0           0           0           0           0           0
           0           0           0           0           0           0
           0
Force Field                                I                0
MM charges                                 R   N=          13
  0.00000000E+00  0.00000000E+00  0.00000000E+00  0.00000000E+00  0.00000000E+00
  0.00000000E+00  0.00000000E+00  0.00000000E+00  0.00000000E+00  0.00000000E+00
  0.00000000E+00  0.00000000E+00  0.00000000E+00
Integer atomic weights                     I   N=          13
          12          12          12          12           1           1
           1           1           1           1           1           1
           1
Real atomic weights                        R   N=          13
  1.20000000E+01  1.20000000E+01  1.20000000E+01  1.20000000E+01  1.00782504E+00
  1.00782504E+00  1.00782504E+00  1.00782504E+00  1.00782504E+00  1.00782504E+00
  1.00782504E+00  1.00782504E+00  1.00782504E+00
Atom residue info                          I   N=          13
           0           0           0           0           0           0
           0           0           0           0           0           0
           0
Atom fragment info                         I   N=          13
           0           0           0           0           0           0
           0           0           0           0           0           0
           0
Atom residue num                           I   N=          13
           0           0           0           0           0           0
           0           0           0           0           0           0
           0
Nuclear spins                              I   N=          13
           0           0           0           0           1           1
           1           1           1           1           1           1
           1
Nuclear ZEff                               R   N=          13
 -3.60000000E+00 -3.60000000E+00 -3.60000000E+00 -3.60000000E+00 -1.00000000E+00
 -1.00000000E+00 -1.00000000E+00 -1.00000000E+00 -1.00000000E+00 -1.00000000E+00
 -1.00000000E+00 -1.00000000E+00 -1.00000000E+00
Nuclear QMom                               R   N=          13
  0.00000000E+00  0.00000000E+00  0.00000000E+00  0.00000000E+00  0.00000000E+00
  0.00000000E+00  0.00000000E+00  0.00000000E+00  0.00000000E+00  0.00000000E+00
  0.00000000E+00  0.00000000E+00  0.00000000E+00
Nuclear GFac                               R   N=          13
  0.00000000E+00  0.00000000E+00  0.00000000E+00  0.00000000E+00  2.79284600E+00
  2.79284600E+00  2.79284600E+00  2.79284600E+00  2.79284600E+00  2.79284600E+00
  2.79284600E+00  2.79284600E+00  2.79284600E+00
MicOpt                                     I   N=          13
          -1          -1          -1          -1          -1          -1
          -1          -1          -1          -1          -1          -1
          -1
Constraint Structure                       R   N=          39
  3.18879749E+00 -1.12152970E+00  2.09717698E-01  1.95993834E+00  1.31003218E+00
 -5.43535001E-01 -2.26329414E+00  1.00618719E+00  6.77542196E-01 -3.36781201E+00
 -1.06919043E+00 -3.54342249E-01  5.18621234E+00 -1.19536479E+00 -3.81749430E-01
  2.23711502E+00 -2.74297997E+00 -6.60661898E-01  3.15941017E+00 -1.39312704E+00
  2.26435368E+00  2.40374112E+00  3.00227870E+00  5.39096206E-01  1.63335906E+00
  1.63859983E+00 -2.54553822E+00 -2.55659649E+00  2.86536761E+00 -1.42760131E-01
 -1.62284990E+00  9.85656221E-01  2.62855605E+00 -4.24240896E+00 -1.01373084E+00
 -2.21198916E+00 -3.30376053E+00 -2.89969514E+00  5.74397036E-01
ONIOM Charges                              I   N=          16
           0           0           0           0           0           0
           0           0           0           0           0           0
           0           0           0           0
ONIOM Multiplicities                       I   N=          16
           2           0           0           0           0           0
           0           0           0           0           0           0
           0           0           0           0
Atom Layers                                I   N=          13
           1           1           1           1           1           1
           1           1           1           1           1           1
           1
Atom Modifiers                             I   N=          13
           0           0           0           0           0           0
           0           0           0           0           0           0
           0
Int Atom Modified Types                    I   N=          13
           0           0           0           0           0           0
           0           0           0           0           0           0
           0
Link Atoms                                 I   N=          13
           0           0           0           0           0           0
           0           0           0           0           0           0
           0
Atom Modified MM Charges                   R   N=          13
  0.00000000E+00  0.00000000E+00  0.00000000E+00  0.00000000E+00  0.00000000E+00
  0.00000000E+00  0.00000000E+00  0.00000000E+00  0.00000000E+00  0.00000000E+00
  0.00000000E+00  0.00000000E+00  0.00000000E+00
Link Distances                             R   N=          52
  0.00000000E+00  0.00000000E+00  0.00000000E+00  0.00000000E+00  0.00000000E+00
  0.00000000E+00  0.00000000E+00  0.00000000E+00  0.00000000E+00  0.00000000E+00
  0.00000000E+00  0.00000000E+00  0.00000000E+00  0.00000000E+00  0.00000000E+00
  0.00000000E+00  0.00000000E+00  0.00000000E+00  0.00000000E+00  0.00000000E+00
  0.00000000E+00  0.00000000E+00  0.00000000E+00  0.00000000E+00  0.00000000E+00
  0.00000000E+00  0.00000000E+00  0.00000000E+00  0.00000000E+00  0.00000000E+00
  0.00000000E+00  0.00000000E+00  0.00000000E+00  0.00000000E+00  0.00000000E+00
  0.00000000E+00  0.00000000E+00  0.00000000E+00  0.00000000E+00  0.00000000E+00
  0.00000000E+00  0.00000000E+00  0.00000000E+00  0.00000000E+00  0.00000000E+00
  0.00000000E+00  0.00000000E+00  0.00000000E+00  0.00000000E+00  0.00000000E+00
  0.00000000E+00  0.00000000E+00
MxBond                                     I                4
NBond                                      I   N=          13
           4           3           3           3           1           1
           1           1           1           1           1           1
           1
IBond                                      I   N=          52
           2           5           6           7           1           8
           9           0           4          10          11           0
           3          12          13           0           1           0
           0           0           1           0           0           0
           1           0           0           0           2           0
           0           0           2           0           0           0
           3           0           0           0           3           0
           0           0           4           0           0           0
           4           0           0           0
RBond                                      R   N=          52
  1.00000000E+00  1.00000000E+00  1.00000000E+00  1.00000000E+00  1.00000000E+00
  1.00000000E+00  1.00000000E+00  0.00000000E+00  2.00000000E+00  1.00000000E+00
  1.00000000E+00  0.00000000E+00  2.00000000E+00  1.00000000E+00  1.00000000E+00
  0.00000000E+00  1.00000000E+00  0.00000000E+00  0.00000000E+00  0.00000000E+00
  1.00000000E+00  0.00000000E+00  0.00000000E+00  0.00000000E+00  1.00000000E+00
  0.00000000E+00  0.00000000E+00  0.00000000E+00  1.00000000E+00  0.00000000E+00
  0.00000000E+00  0.00000000E+00  1.00000000E+00  0.00000000E+00  0.00000000E+00
  0.00000000E+00  1.00000000E+00  0.00000000E+00  0.00000000E+00  0.00000000E+00
  1.00000000E+00  0.00000000E+00  0.00000000E+00  0.00000000E+00  1.00000000E+00
  0.00000000E+00  0.00000000E+00  0.00000000E+00  1.00000000E+00  0.00000000E+00
  0.00000000E+00  0.00000000E+00
Shell types                                I   N=          34
           0          -1          -1           2           0          -1
          -1           2           0          -1          -1           2
           0          -1          -1           2           0           0
           0           0           0           0           0           0
           0           0           0           0           0           0
           0           0           0           0
Number of primitives per shell             I   N=          34
           6           3           1           1           6           3
           1           1           6           3           1           1
           6           3           1           1           3           1
           3           1           3           1           3           1
           3           1           3           1           3           1
           3           1           3           1
Shell to atom map                          I   N=          34
           1           1           1           1           2           2
           2           2           3           3           3           3
           4           4           4           4           5           5
           6           6           7           7           8           8
           9           9          10          10          11          11
          12          12          13          13
Primitive exponents                        R   N=          80
  3.04752488E+03  4.57369518E+02  1.03948685E+02  2.92101553E+01  9.28666296E+00
  3.16392696E+00  7.86827235E+00  1.88128854E+00  5.44249258E-01  1.68714478E-01
  8.00000000E-01  3.04752488E+03  4.57369518E+02  1.03948685E+02  2.92101553E+01
  9.28666296E+00  3.16392696E+00  7.86827235E+00  1.88128854E+00  5.44249258E-01
  1.68714478E-01  8.00000000E-01  3.04752488E+03  4.57369518E+02  1.03948685E+02
  2.92101553E+01  9.28666296E+00  3.16392696E+00  7.86827235E+00  1.88128854E+00
  5.44249258E-01  1.68714478E-01  8.00000000E-01  3.04752488E+03  4.57369518E+02
  1.03948685E+02  2.92101553E+01  9.28666296E+00  3.16392696E+00  7.86827235E+00
  1.88128854E+00  5.44249258E-01  1.68714478E-01  8.00000000E-01  1.87311370E+01
  2.82539436E+00  6.40121692E-01  1.61277759E-01  1.87311370E+01  2.82539436E+00
  6.40121692E-01  1.61277759E-01  1.87311370E+01  2.82539436E+00  6.40121692E-01
  1.61277759E-01  1.87311370E+01  2.82539436E+00  6.40121692E-01  1.61277759E-01
  1.87311370E+01  2.82539436E+00  6.40121692E-01  1.61277759E-01  1.87311370E+01
  2.82539436E+00  6.40121692E-01  1.61277759E-01  1.87311370E+01  2.82539436E+00
  6.40121692E-01  1.61277759E-01  1.87311370E+01  2.82539436E+00  6.40121692E-01
  1.61277759E-01  1.87311370E+01  2.82539436E+00  6.40121692E-01  1.61277759E-01
Contraction coefficients                   R   N=          80
  1.83473713E-03  1.40373228E-02  6.88426223E-02  2.32184443E-01  4.67941348E-01
  3.62311985E-01 -1.19332420E-01 -1.60854152E-01  1.14345644E+00  1.00000000E+00
  1.00000000E+00  1.83473713E-03  1.40373228E-02  6.88426223E-02  2.32184443E-01
  4.67941348E-01  3.62311985E-01 -1.19332420E-01 -1.60854152E-01  1.14345644E+00
  1.00000000E+00  1.00000000E+00  1.83473713E-03  1.40373228E-02  6.88426223E-02
  2.32184443E-01  4.67941348E-01  3.62311985E-01 -1.19332420E-01 -1.60854152E-01
  1.14345644E+00  1.00000000E+00  1.00000000E+00  1.83473713E-03  1.40373228E-02
  6.88426223E-02  2.32184443E-01  4.67941348E-01  3.62311985E-01 -1.19332420E-01
 -1.60854152E-01  1.14345644E+00  1.00000000E+00  1.00000000E+00  3.34946043E-02
  2.34726953E-01  8.13757326E-01  1.00000000E+00  3.34946043E-02  2.34726953E-01
  8.13757326E-01  1.00000000E+00  3.34946043E-02  2.34726953E-01  8.13757326E-01
  1.00000000E+00  3.34946043E-02  2.34726953E-01  8.13757326E-01  1.00000000E+00
  3.34946043E-02  2.34726953E-01  8.13757326E-01  1.00000000E+00  3.34946043E-02
  2.34726953E-01  8.13757326E-01  1.00000000E+00  3.34946043E-02  2.34726953E-01
  8.13757326E-01  1.00000000E+00  3.34946043E-02  2.34726953E-01  8.13757326E-01
  1.00000000E+00  3.34946043E-02  2.34726953E-01  8.13757326E-01  1.00000000E+00
P(S=P) Contraction coefficients            R   N=          80
  0.00000000E+00  0.00000000E+00  0.00000000E+00  0.00000000E+00  0.00000000E+00
  0.00000000E+00  6.89990666E-02  3.16423961E-01  7.44308291E-01  1.00000000E+00
  0.00000000E+00  0.00000000E+00  0.00000000E+00  0.00000000E+00  0.00000000E+00
  0.00000000E+00  0.00000000E+00  6.89990666E-02  3.16423961E-01  7.44308291E-01
  1.00000000E+00  0.00000000E+00  0.00000000E+00  0.00000000E+00  0.00000000E+00
  0.00000000E+00  0.00000000E+00  0.00000000E+00  6.89990666E-02  3.16423961E-01
  7.44308291E-01  1.00000000E+00  0.00000000E+00  0.00000000E+00  0.00000000E+00
  0.00000000E+00  0.00000000E+00  0.00000000E+00  0.00000000E+00  6.89990666E-02
  3.16423961E-01  7.44308291E-01  1.00000000E+00  0.00000000E+00  0.00000000E+00
  0.00000000E+00  0.00000000E+00  0.00000000E+00  0.00000000E+00  0.00000000E+00
  0.00000000E+00  0.00000000E+00  0.00000000E+00  0.00000000E+00  0.00000000E+00
  0.00000000E+00  0.00000000E+00  0.00000000E+00  0.00000000E+00  0.00000000E+00
  0.00000000E+00  0.00000000E+00  0.00000000E+00  0.00000000E+00  0.00000000E+00
  0.00000000E+00  0.00000000E+00  0.00000000E+00  0.00000000E+00  0.00000000E+00
  0.00000000E+00  0.00000000E+00  0.00000000E+00  0.00000000E+00  0.00000000E+00
  0.00000000E+00  0.00000000E+00  0.00000000E+00  0.00000000E+00  0.00000000E+00
Coordinates of each shell                  R   N=         102
  3.18879749E+00 -1.12152970E+00  2.09717698E-01  3.18879749E+00 -1.12152970E+00
  2.09717698E-01  3.18879749E+00 -1.12152970E+00  2.09717698E-01  3.18879749E+00
 -1.12152970E+00  2.09717698E-01  1.95993834E+00  1.31003218E+00 -5.43535001E-01
  1.95993834E+00  1.31003218E+00 -5.43535001E-01  1.95993834E+00  1.31003218E+00
 -5.43535001E-01  1.95993834E+00  1.31003218E+00 -5.43535001E-01 -2.26329414E+00
  1.00618719E+00  6.77542196E-01 -2.26329414E+00  1.00618719E+00  6.77542196E-01
 -2.26329414E+00  1.00618719E+00  6.77542196E-01 -2.26329414E+00  1.00618719E+00
  6.77542196E-01 -3.36781201E+00 -1.06919043E+00 -3.54342249E-01 -3.36781201E+00
 -1.06919043E+00 -3.54342249E-01 -3.36781201E+00 -1.06919043E+00 -3.54342249E-01
 -3.36781201E+00 -1.06919043E+00 -3.54342249E-01  5.18621234E+00 -1.19536479E+00
 -3.81749430E-01  5.18621234E+00 -1.19536479E+00 -3.81749430E-01  2.23711502E+00
 -2.74297997E+00 -6.60661898E-01  2.23711502E+00 -2.74297997E+00 -6.60661898E-01
  3.15941017E+00 -1.39312704E+00  2.26435368E+00  3.15941017E+00 -1.39312704E+00
  2.26435368E+00  2.40374112E+00  3.00227870E+00  5.39096206E-01  2.40374112E+00
  3.00227870E+00  5.39096206E-01  1.63335906E+00  1.63859983E+00 -2.54553822E+00
  1.63335906E+00  1.63859983E+00 -2.54553822E+00 -2.55659649E+00  2.86536761E+00
 -1.42760131E-01 -2.55659649E+00  2.86536761E+00 -1.42760131E-01 -1.62284990E+00
  9.85656221E-01  2.62855605E+00 -1.62284990E+00  9.85656221E-01  2.62855605E+00
 -4.24240896E+00 -1.01373084E+00 -2.21198916E+00 -4.24240896E+00 -1.01373084E+00
 -2.21198916E+00 -3.30376053E+00 -2.89969514E+00  5.74397036E-01 -3.30376053E+00
 -2.89969514E+00  5.74397036E-01
Alpha Orbital Energies                     R   N=          78
 -1.01878641E+01 -1.01831179E+01 -1.01752004E+01 -1.01751866E+01 -7.58435241E-01
 -7.37056315E-01 -6.06200363E-01 -5.69908348E-01 -4.58660580E-01 -4.41080754E-01
 -4.09464008E-01 -4.05238567E-01 -3.77608373E-01 -3.49324412E-01 -3.47064358E-01
 -2.79551014E-01 -1.72361955E-01  4.31899244E-02  1.00496153E-01  1.31182335E-01
  1.37855498E-01  1.51384442E-01  1.60312430E-01  1.76602178E-01  1.80182428E-01
  2.08899061E-01  2.45447977E-01  2.64816149E-01  3.32379280E-01  4.66899996E-01
  5.11831887E-01  5.34865564E-01  5.39011111E-01  5.68131973E-01  5.84647322E-01
  6.33451878E-01  6.61468024E-01  6.86214138E-01  7.10839926E-01  7.61581697E-01
  7.91750374E-01  8.59960811E-01  8.68037539E-01  8.79446490E-01  8.88075256E-01
  9.21427031E-01  9.51707732E-01  9.57206286E-01  9.67938601E-01  9.72468248E-01
  1.07022893E+00  1.19445360E+00  1.26659156E+00  1.43010594E+00  1.48545997E+00
  1.58519757E+00  1.60878989E+00  1.62456879E+00  1.80895974E+00  1.88713617E+00
  1.90561271E+00  1.93437001E+00  1.98931144E+00  2.04388415E+00  2.08987704E+00
  2.18842899E+00  2.22486740E+00  2.26689188E+00  2.33426742E+00  2.38555746E+00
  2.42730467E+00  2.60273787E+00  2.68428873E+00  2.69727803E+00  4.11671673E+00
  4.19030093E+00  4.33035047E+00  4.37789824E+00
Beta Orbital Energies                      R   N=          78
 -1.01858499E+01 -1.01759341E+01 -1.01756601E+01 -1.01693418E+01 -7.48802477E-01
 -7.27688541E-01 -5.89782144E-01 -5.62629567E-01 -4.56477259E-01 -4.35992644E-01
 -4.03866807E-01 -3.96652956E-01 -3.71276364E-01 -3.46672554E-01 -3.44280234E-01
 -2.57461868E-01 -4.61237106E-02  6.60883121E-02  1.03837477E-01  1.33503851E-01
  1.43060943E-01  1.54038932E-01  1.64113123E-01  1.80715714E-01  1.84318964E-01
  2.13850000E-01  2.47386290E-01  2.72307840E-01  3.34836713E-01  4.70679708E-01
  5.15428569E-01  5.37429719E-01  5.48081060E-01  5.80360348E-01  6.06163543E-01
  6.40776633E-01  6.70352024E-01  6.98581799E-01  7.25856505E-01  7.69869380E-01
  7.99538020E-01  8.60335827E-01  8.70510679E-01  8.82422820E-01  8.92253530E-01
  9.26788455E-01  9.55795827E-01  9.62788564E-01  9.70847459E-01  9.81009669E-01
  1.08413956E+00  1.19706529E+00  1.26953354E+00  1.43791467E+00  1.50329562E+00
  1.59606957E+00  1.62229718E+00  1.65054887E+00  1.81722518E+00  1.90258163E+00
  1.91958456E+00  1.96415188E+00  2.00442838E+00  2.04593552E+00  2.09272880E+00
  2.22500554E+00  2.23287859E+00  2.27714310E+00  2.34587588E+00  2.39346324E+00
  2.43445671E+00  2.61428539E+00  2.68620375E+00  2.70036739E+00  4.12851381E+00
  4.20116474E+00  4.33037163E+00  4.39258916E+00
Alpha MO coefficients                      R   N=        6084
  1.03467935E-02  2.30731698E-04  8.55114882E-05 -2.10792286E-04  6.55440815E-05
  4.05127932E-03 -1.08909896E-03  1.84196280E-03 -4.80413585E-04 -2.31174372E-04
 -4.60734993E-04 -2.35965913E-04  1.12100478E-04 -4.18189762E-05  1.00523923E-04
  9.92700221E-01  5.06847851E-02 -1.00880600E-04 -3.35777323E-05  6.74843632E-05
 -1.55010377E-02  3.46510417E-05  8.19923083E-04 -4.07049687E-04 -9.38581110E-03
 -9.57107575E-03 -9.50550109E-03  6.21460780E-05 -6.08990997E-05  1.56042082E-05
 -2.97755782E-04 -6.64692981E-04 -7.59337062E-05  5.07614213E-06  3.06503502E-05
  2.89005963E-03  1.28759794E-03 -5.52018592E-05 -4.03434451E-04  2.75643206E-05
 -2.14743218E-04 -1.98145026E-04  4.53794075E-06 -7.49946489E-05  4.75801438E-06
 -3.48140595E-04 -4.19345715E-05 -6.44691508E-05 -2.20560721E-05  3.34168918E-05
 -1.60891882E-04 -3.57012204E-04 -1.57697415E-04 -1.42146316E-04 -8.53341231E-05
 -3.43731243E-05 -5.09490119E-05 -1.90498920E-05 -1.45772254E-05  5.74697328E-05
 -1.64105851E-04  2.48601533E-04 -1.62655291E-04  1.50378441E-04 -1.54041737E-04
  7.53557733E-05 -1.07069264E-04  2.63474311E-03 -1.05757405E-04  2.60179914E-03
 -1.54825467E-04 -3.41520570E-04 -2.08733534E-04 -2.15587614E-04  1.89563157E-05
 -2.21574307E-04  5.35622159E-05 -1.25866287E-04 -2.78220939E-04 -4.22073983E-06
  1.35338565E-04 -4.63352256E-05 -4.19290567E-05 -5.44069684E-04  3.73493774E-05
 -2.57997000E-04  3.63370473E-04 -8.29179308E-05 -7.90884423E-06 -3.76334237E-05
  3.79772760E-05 -1.97601992E-05 -2.09263193E-05  3.57640994E-05 -7.06164713E-04
  6.58637527E-05  5.95911312E-05  1.14547344E-05  3.21796269E-03 -1.17728885E-03
 -4.73214267E-04  1.28860408E-04  3.03768214E-05 -2.58401191E-04 -2.50727170E-04
  2.83877138E-05 -8.78669190E-05 -3.62649372E-05  9.91920672E-01  4.91811085E-02
  2.39094131E-04  1.36943577E-06 -7.61065813E-05 -1.61568887E-02 -5.57104703E-04
  7.42196101E-04  6.52896418E-04 -9.26852159E-03 -8.73952552E-03 -8.92854235E-03
  1.57261060E-04  2.50501882E-04  6.62886910E-05  4.53081134E-02  1.75342217E-03
 -1.50599175E-04 -3.44656397E-04 -1.85951992E-04  4.52982406E-03  1.19205359E-03
  1.82021251E-03  8.58281984E-04 -5.78492858E-04 -7.51295768E-04 -6.33093625E-04
 -6.61862095E-05 -4.59243150E-05 -1.11163835E-04  9.27755534E-06  2.82408436E-04
  2.25345552E-05 -6.19984487E-05  1.16691905E-05 -2.97660266E-04 -8.50960309E-05
 -2.78268921E-04 -2.09022767E-04 -4.15846597E-04 -1.33399023E-04  2.61511750E-03
 -1.26925685E-04  2.63428944E-03 -1.31491881E-04  1.89006249E-04 -1.37741269E-04
  1.73661557E-04 -8.50765788E-03 -3.74639235E-04  7.19068093E-05 -4.23864765E-05
 -2.55200483E-05 -4.19329338E-04 -5.78099385E-05  2.33417707E-04  3.40138178E-04
  5.14139017E-05  1.21704629E-04  8.16621858E-05  1.44925781E-06 -4.68447558E-06
  8.14494702E-06  3.91190874E-04  1.95880994E-07  1.23750648E-04  1.04782766E-04
  4.22403369E-05  9.35399381E-05 -2.38752727E-04 -4.22907270E-04 -3.94665090E-04
 -9.47532839E-05 -6.76996005E-05 -5.49664060E-05 -2.25631828E-05  1.70900736E-07
 -1.79955986E-05 -4.57325928E-02 -2.65397541E-03  1.95470624E-04  3.00329226E-04
  1.40472935E-04  4.67548450E-03 -8.99984597E-04 -1.48829520E-03 -7.03160984E-04
  2.79334884E-04  1.76632801E-04  2.67927273E-04 -8.17954818E-05 -5.09297510E-05
 -6.15597432E-05  9.91554425E-01  4.98812513E-02  1.51255666E-04  1.73344109E-05
 -3.26969718E-05 -1.31389709E-02 -6.11244335E-04 -7.43475637E-04 -3.22832185E-04
 -9.68933644E-03 -9.57141335E-03 -9.67273462E-03  9.29588574E-05  5.30968437E-05
  7.78919935E-05  4.29345539E-05  1.61094217E-04 -9.33197835E-05  5.45525401E-04
  1.32135161E-05 -1.70985092E-04  4.21752354E-05  3.96379902E-04 -8.59541667E-05
 -1.64420401E-04 -6.32834531E-05 -6.50097464E-05 -6.51048225E-05 -5.15770264E-05
 -3.07081328E-04  2.21195372E-03 -2.85242998E-04  2.19281293E-03  9.92832787E-01
  4.98254764E-02  8.15930935E-06  3.23631303E-05  2.11082498E-07 -1.70292358E-02
  4.05910506E-04 -7.17869841E-04  2.23024390E-04 -9.11135028E-03 -9.13198599E-03
 -9.09134282E-03  2.41359667E-05 -5.64794123E-06  1.55917727E-05 -1.05882424E-02
 -7.48539346E-04 -6.88257271E-05  1.82260619E-04 -6.27283169E-05  4.46356377E-03
  9.54697484E-04 -1.84435025E-03  5.64999571E-04 -1.21363256E-04 -2.39176917E-04
 -1.39531077E-05  1.29228488E-04 -1.56445171E-05  9.86282146E-05 -1.36995581E-04
 -2.27142054E-05 -8.63172280E-05  8.49449500E-05 -2.99500007E-05  2.66804535E-04
  1.26314077E-04 -5.18247478E-04  2.60438046E-04 -9.34543505E-05 -3.72773987E-05
 -2.87244246E-05  7.08981304E-06  1.97354046E-05  2.02481969E-05  8.52674248E-03
  4.58734597E-04 -1.43785228E-05 -9.15226743E-06 -2.90511409E-05 -4.09104438E-04
 -1.42115468E-04 -1.10302641E-05 -9.21445200E-05 -9.97830996E-05 -6.17784370E-05
 -9.38200145E-05 -3.78910554E-06 -1.16557700E-05  1.70493419E-06 -4.55947206E-05
  2.67141105E-03 -4.86907027E-05  2.76797088E-03 -4.92164678E-05  2.73593856E-03
 -1.50524785E-04  6.29997448E-05 -1.49005800E-04  5.62394131E-05  2.11114559E-05
  4.23526508E-04 -4.95555840E-05 -2.69973090E-04  9.31937579E-06 -1.34346701E-06
  3.83371426E-05 -1.87469905E-05 -1.08275732E-01  2.07381110E-01 -2.02624094E-02
  3.71306520E-02 -1.11446579E-02  1.68404562E-01  1.29944789E-04  2.63105591E-03
 -2.32469670E-03 -2.82985219E-04  2.06010549E-03 -8.01589238E-04 -1.93697668E-03
  6.84206372E-04 -1.19033470E-03 -1.08363520E-01  2.10565523E-01  1.90884843E-02
 -3.92432380E-02  1.20034461E-02  1.80128451E-01  2.93290157E-03 -2.91896593E-03
  3.72856955E-03 -2.70469972E-03  1.88989657E-03 -1.59722850E-03 -2.74486932E-03
  1.56639347E-03 -1.02439726E-03 -1.12197008E-01  2.15002956E-01 -2.28912585E-02
 -4.66989605E-02 -2.19513549E-02  1.64514368E-01  3.90076786E-03  1.06641271E-03
 -1.19275479E-03 -8.13777217E-03  2.78485400E-03 -1.19406893E-03  3.69534216E-03
  6.00404535E-03  7.60039520E-04 -1.05280653E-01  2.03820641E-01  3.23920900E-02
  5.22499575E-02  2.52211923E-02  1.58674182E-01  3.44390952E-03  3.72901128E-03
  2.17809943E-03 -5.38137253E-03  2.39762023E-03 -1.58368942E-03  4.06167572E-03
  4.55851807E-03  1.30647792E-03  6.12082969E-02  1.12055523E-02  6.23847291E-02
  1.35595669E-02  6.18339276E-02  1.50577327E-02  6.04699279E-02  9.28373625E-03
  6.06642610E-02  1.25690304E-02  6.18191945E-02  1.21825415E-02  6.33315204E-02
  1.45043621E-02  5.37770238E-02  1.10507509E-02  5.41558643E-02  1.14004616E-02
  1.16494003E-01 -2.24094475E-01  9.57376501E-03 -3.26001160E-02  1.07261440E-02
 -1.89235352E-01 -4.73212434E-03 -1.32675676E-04  1.53018697E-03  1.10425930E-03
 -1.45187862E-03  5.14048253E-04  1.04764890E-03 -3.92924173E-04  8.78120489E-04
  9.32005271E-02 -1.81453410E-01 -4.69936693E-02  4.37263539E-02 -9.13087473E-03
 -1.58839264E-01 -1.14881727E-02  5.75350467E-03 -1.38186001E-03  4.42525345E-03
 -3.27452790E-03  1.35247249E-03  3.99743150E-03 -2.33033155E-03  1.40095082E-03
 -1.09231928E-01  2.11305222E-01 -4.95885833E-02 -5.87248307E-02 -2.52349292E-02
  1.63438644E-01 -5.90561503E-03 -3.37141596E-03  1.11209527E-05 -1.00712977E-02
  4.02191634E-03 -1.02472167E-03  4.67411843E-03  6.78954457E-03  1.57085356E-03
 -1.21150850E-01  2.36431440E-01  2.69231382E-02  5.38729527E-02  2.63975838E-02
  1.85247651E-01 -4.03991743E-04  2.48996323E-03  1.19183474E-03 -7.29429305E-03
  2.50046326E-03 -1.32751645E-03  3.88460716E-03  5.13724780E-03  9.55314953E-04
 -7.15575829E-02 -1.43674164E-02 -6.69343451E-02 -1.27157488E-02 -6.86940490E-02
 -1.47481032E-02 -5.15922623E-02 -9.52069099E-03 -5.05167480E-02 -8.54015379E-03
  5.81205524E-02  1.22596763E-02  5.64198783E-02  9.71087395E-03  6.61856840E-02