no title                                                                
Freq      UB3LYP                                                      6-31G(d)            
Number of atoms                            I               13
Charge                                     I                0
Multiplicity                               I                2
Number of electrons                        I               33
Number of alpha electrons                  I               17
Number of beta electrons                   I               16
Number of basis functions                  I               78
Number of independant functions            I               78
Number of point charges in /Mol/           I                0
Number of translation vectors              I                0
Info1-9                                    I   N=           9
          23          22           0           0           0         100
           6          18        -502
Num ILSW                                   I              100
ILSW                                       I   N=         100
           1           1           0           0           2           0
           0           0           0           0         402      200000
           0           0           0           0           0           0
           0      800000           0           0           1           0
           1           0           0           0     1000000           0
           0           0      100000           0          -1           0
           0           0           0           0           0           0
           0           0           0           1           0           0
           0           0           1      720000      810000           0
           0           0           0           0           0           0
           0           0           0           0           0           0
           0           0           0           0           0           0
           0           0           0           0           0           0
           0           0           0           0           0           0
           0           0           0           0           0           0
           0           0           0           0           0           0
           0           0           0           0
Number of contracted shells                I               34
Highest angular momentum                   I                2
Largest degree of contraction              I                6
Number of primitive shells                 I               80
Pure/Cartesian d shells                    I                1
Pure/Cartesian f shells                    I                0
Virial Ratio                               R      2.010405928721580E+00
SCF Energy                                 R     -1.577371094502940E+02
Total Energy                               R     -1.577371094502940E+02
S**2                                       R      7.805383864215933E-01
S**2 after annihilation                    R      7.501869797682847E-01
RMS Force                                  R      1.014762689421262E-05
RMS Density                                R      8.103694412689013E-09
Atomic numbers                             I   N=          13
           6           6           6           6           1           1
           1           1           1           1           1           1
           1
Nuclear charges                            R   N=          13
  6.00000000E+00  6.00000000E+00  6.00000000E+00  6.00000000E+00  1.00000000E+00
  1.00000000E+00  1.00000000E+00  1.00000000E+00  1.00000000E+00  1.00000000E+00
  1.00000000E+00  1.00000000E+00  1.00000000E+00
Current cartesian coordinates              R   N=          39
  3.82519229E+00 -4.83707821E-01  2.59896419E-04  1.66976804E+00  1.35054509E+00
 -2.35644761E-04 -1.97045499E+00 -1.14253081E+00 -3.86099063E-04 -4.08995602E+00
  3.04804174E-01  3.48849120E-04  5.66946826E+00  4.89683196E-01 -7.24574587E-04
  3.79800526E+00 -1.70524962E+00 -1.67463994E+00  3.79874011E+00 -1.70343158E+00
  1.67647937E+00  1.28914317E+00  2.39687808E+00  1.72632847E+00  1.28974885E+00
  2.39681886E+00 -1.72696440E+00 -1.28530919E+00 -1.99673077E+00  1.73671858E+00
 -1.28598699E+00 -1.99569865E+00 -1.73829955E+00 -4.94033304E+00  9.71171328E-01
  1.74704791E+00 -4.94077235E+00  9.71895363E-01 -1.74586787E+00
Int Atom Types                             I   N=          13
           0           0           0           0           0           0
           0           0           0           0           0           0
           0
Force Field                                I                0
MM charges                                 R   N=          13
  0.00000000E+00  0.00000000E+00  0.00000000E+00  0.00000000E+00  0.00000000E+00
  0.00000000E+00  0.00000000E+00  0.00000000E+00  0.00000000E+00  0.00000000E+00
  0.00000000E+00  0.00000000E+00  0.00000000E+00
Integer atomic weights                     I   N=          13
          12          12          12          12           1           1
           1           1           1           1           1           1
           1
Real atomic weights                        R   N=          13
  1.20000000E+01  1.20000000E+01  1.20000000E+01  1.20000000E+01  1.00782504E+00
  1.00782504E+00  1.00782504E+00  1.00782504E+00  1.00782504E+00  1.00782504E+00
  1.00782504E+00  1.00782504E+00  1.00782504E+00
Atom residue info                          I   N=          13
           0           0           0           0           0           0
           0           0           0           0           0           0
           0
Atom fragment info                         I   N=          13
           0           0           0           0           0           0
           0           0           0           0           0           0
           0
Atom residue num                           I   N=          13
           0           0           0           0           0           0
           0           0           0           0           0           0
           0
Nuclear spins                              I   N=          13
           0           0           0           0           1           1
           1           1           1           1           1           1
           1
Nuclear ZEff                               R   N=          13
 -3.60000000E+00 -3.60000000E+00 -3.60000000E+00 -3.60000000E+00 -1.00000000E+00
 -1.00000000E+00 -1.00000000E+00 -1.00000000E+00 -1.00000000E+00 -1.00000000E+00
 -1.00000000E+00 -1.00000000E+00 -1.00000000E+00
Nuclear QMom                               R   N=          13
  0.00000000E+00  0.00000000E+00  0.00000000E+00  0.00000000E+00  0.00000000E+00
  0.00000000E+00  0.00000000E+00  0.00000000E+00  0.00000000E+00  0.00000000E+00
  0.00000000E+00  0.00000000E+00  0.00000000E+00
Nuclear GFac                               R   N=          13
  0.00000000E+00  0.00000000E+00  0.00000000E+00  0.00000000E+00  2.79284600E+00
  2.79284600E+00  2.79284600E+00  2.79284600E+00  2.79284600E+00  2.79284600E+00
  2.79284600E+00  2.79284600E+00  2.79284600E+00
MicOpt                                     I   N=          13
          -1          -1          -1          -1          -1          -1
          -1          -1          -1          -1          -1          -1
          -1
Constraint Structure                       R   N=          39
  3.82519229E+00 -4.83707821E-01  2.59896419E-04  1.66976804E+00  1.35054509E+00
 -2.35644761E-04 -1.97045499E+00 -1.14253081E+00 -3.86099063E-04 -4.08995602E+00
  3.04804174E-01  3.48849120E-04  5.66946826E+00  4.89683196E-01 -7.24574587E-04
  3.79800526E+00 -1.70524962E+00 -1.67463994E+00  3.79874011E+00 -1.70343158E+00
  1.67647937E+00  1.28914317E+00  2.39687808E+00  1.72632847E+00  1.28974885E+00
  2.39681886E+00 -1.72696440E+00 -1.28530919E+00 -1.99673077E+00  1.73671858E+00
 -1.28598699E+00 -1.99569865E+00 -1.73829955E+00 -4.94033304E+00  9.71171328E-01
  1.74704791E+00 -4.94077235E+00  9.71895363E-01 -1.74586787E+00
ONIOM Charges                              I   N=          16
           0           0           0           0           0           0
           0           0           0           0           0           0
           0           0           0           0
ONIOM Multiplicities                       I   N=          16
           2           0           0           0           0           0
           0           0           0           0           0           0
           0           0           0           0
Atom Layers                                I   N=          13
           1           1           1           1           1           1
           1           1           1           1           1           1
           1
Atom Modifiers                             I   N=          13
           0           0           0           0           0           0
           0           0           0           0           0           0
           0
Int Atom Modified Types                    I   N=          13
           0           0           0           0           0           0
           0           0           0           0           0           0
           0
Link Atoms                                 I   N=          13
           0           0           0           0           0           0
           0           0           0           0           0           0
           0
Atom Modified MM Charges                   R   N=          13
  0.00000000E+00  0.00000000E+00  0.00000000E+00  0.00000000E+00  0.00000000E+00
  0.00000000E+00  0.00000000E+00  0.00000000E+00  0.00000000E+00  0.00000000E+00
  0.00000000E+00  0.00000000E+00  0.00000000E+00
Link Distances                             R   N=          52
  0.00000000E+00  0.00000000E+00  0.00000000E+00  0.00000000E+00  0.00000000E+00
  0.00000000E+00  0.00000000E+00  0.00000000E+00  0.00000000E+00  0.00000000E+00
  0.00000000E+00  0.00000000E+00  0.00000000E+00  0.00000000E+00  0.00000000E+00
  0.00000000E+00  0.00000000E+00  0.00000000E+00  0.00000000E+00  0.00000000E+00
  0.00000000E+00  0.00000000E+00  0.00000000E+00  0.00000000E+00  0.00000000E+00
  0.00000000E+00  0.00000000E+00  0.00000000E+00  0.00000000E+00  0.00000000E+00
  0.00000000E+00  0.00000000E+00  0.00000000E+00  0.00000000E+00  0.00000000E+00
  0.00000000E+00  0.00000000E+00  0.00000000E+00  0.00000000E+00  0.00000000E+00
  0.00000000E+00  0.00000000E+00  0.00000000E+00  0.00000000E+00  0.00000000E+00
  0.00000000E+00  0.00000000E+00  0.00000000E+00  0.00000000E+00  0.00000000E+00
  0.00000000E+00  0.00000000E+00
MxBond                                     I                4
NBond                                      I   N=          13
           4           3           3           3           1           1
           1           1           1           1           1           1
           1
IBond                                      I   N=          52
           2           5           6           7           1           8
           9           0           4          10          11           0
           3          12          13           0           1           0
           0           0           1           0           0           0
           1           0           0           0           2           0
           0           0           2           0           0           0
           3           0           0           0           3           0
           0           0           4           0           0           0
           4           0           0           0
RBond                                      R   N=          52
  1.00000000E+00  1.00000000E+00  1.00000000E+00  1.00000000E+00  1.00000000E+00
  1.00000000E+00  1.00000000E+00  0.00000000E+00  2.00000000E+00  1.00000000E+00
  1.00000000E+00  0.00000000E+00  2.00000000E+00  1.00000000E+00  1.00000000E+00
  0.00000000E+00  1.00000000E+00  0.00000000E+00  0.00000000E+00  0.00000000E+00
  1.00000000E+00  0.00000000E+00  0.00000000E+00  0.00000000E+00  1.00000000E+00
  0.00000000E+00  0.00000000E+00  0.00000000E+00  1.00000000E+00  0.00000000E+00
  0.00000000E+00  0.00000000E+00  1.00000000E+00  0.00000000E+00  0.00000000E+00
  0.00000000E+00  1.00000000E+00  0.00000000E+00  0.00000000E+00  0.00000000E+00
  1.00000000E+00  0.00000000E+00  0.00000000E+00  0.00000000E+00  1.00000000E+00
  0.00000000E+00  0.00000000E+00  0.00000000E+00  1.00000000E+00  0.00000000E+00
  0.00000000E+00  0.00000000E+00
Cartesian Gradient                         R   N=          39
 -4.13806206E-07  1.15618112E-06  3.93376992E-06 -2.22022723E-06 -6.03895707E-07
 -1.13585753E-05 -3.27562573E-05  2.07897763E-05  8.73985481E-06  4.02978745E-05
 -1.93550276E-05  7.94367585E-06 -4.69263251E-07  2.52967834E-06 -1.33047912E-06
  2.57118413E-07  8.85680931E-07  9.66190623E-07  1.38641560E-06  1.69792729E-06
  5.95818586E-07 -2.16276171E-06 -1.97204696E-06  5.75168910E-06 -1.31205206E-07
  2.96385351E-06  2.94742597E-07  7.07365877E-07 -4.78382807E-08 -1.97521159E-06
  1.61217381E-06 -1.23021940E-06 -8.66941097E-06 -4.90951952E-06 -1.05196288E-06
 -2.18535534E-06 -1.19790770E-06 -5.76210668E-06 -2.70670918E-06
Cartesian Force Constants                  R   N=         780
  4.80979877E-01  1.14660901E-02  5.24297984E-01 -2.64150027E-06 -1.04940522E-05
  5.72350528E-01 -1.47576474E-01  8.40698830E-02 -2.71958340E-05  2.30463091E-01
  9.34984628E-02 -1.35328313E-01  3.05340388E-05 -2.18713031E-01  3.80344423E-01
 -1.32405568E-05  1.17686913E-05 -8.98251873E-02 -5.91464410E-05 -3.35464325E-05
  6.22228873E-01 -1.12697370E-02 -1.54262485E-03  3.98187609E-06  8.40058027E-02
  5.34706955E-02  1.78191355E-06  3.50117156E-01  1.82023024E-03  2.42453113E-03
 -2.09718712E-06  1.24520070E-02 -4.35866019E-03  8.41735745E-07 -3.54852388E-01
  3.95479351E-01  1.80330221E-06  7.04237786E-07  1.08702631E-03 -1.17791056E-05
 -7.51763193E-06 -1.23023771E-02 -2.31300552E-05 -3.03577523E-05  6.46498211E-01
  2.26588079E-05 -2.23466338E-03  1.82661710E-08 -4.53442135E-02 -1.98055590E-02
 -2.06539499E-07 -2.71847103E-01  2.26589465E-01  8.88862584E-05  5.23113090E-01
 -2.78807011E-03 -7.28861124E-04  1.77407815E-06  2.13157928E-02  1.67655200E-02
  4.29951999E-07  1.71787707E-01 -2.00904659E-01 -5.38318713E-05 -3.12184482E-01
  3.19882386E-01 -8.33337554E-07 -3.92575709E-07 -5.46437276E-04  1.32890811E-05
  7.53220873E-06  4.62894692E-04  6.94108725E-05 -5.91535231E-05 -1.12631446E-01
 -7.50314343E-05 -9.75667577E-06  6.39561351E-01 -2.29727339E-01 -1.10477674E-01
  1.04047106E-04 -2.70236296E-02 -2.77820127E-03  8.78290825E-06  1.13498537E-03
  1.98149185E-03 -5.52149622E-09 -1.20408496E-03 -4.66350670E-04  8.29515862E-08
  2.56480490E-01 -9.88592462E-02 -1.01721622E-01  5.90008698E-05  2.03451357E-02
  1.11686494E-02 -1.18240676E-05 -1.17425970E-04 -6.57451590E-04  1.49982284E-07
  9.50621157E-04  2.29080375E-04 -1.53649445E-07  1.13179601E-01  1.10968708E-01
  9.79955488E-05  6.27679260E-05 -4.62009441E-02 -1.16354345E-06 -5.84725865E-06
  3.72383762E-04 -2.80240326E-06  5.54434436E-07 -3.32741652E-04  1.87805149E-07
 -8.39237511E-07  3.26785705E-04 -1.13374026E-04 -6.38353065E-05  4.53908429E-02
 -4.59962909E-02 -3.72938830E-03 -6.17825547E-03 -1.80069597E-03  1.54565520E-02
  2.45331811E-02  8.05363233E-04  6.46054763E-04  6.58433838E-04 -1.20899332E-04
 -6.86171555E-05 -2.12367443E-04 -7.40504477E-04 -1.68609341E-02 -2.47620415E-02
  5.20866072E-02 -3.47599371E-03 -1.37971172E-01 -1.21567020E-01  8.10735856E-04
 -1.14329930E-02 -1.80893868E-02 -8.38656462E-04 -1.73808760E-04 -1.20267323E-04
  3.88832951E-04 -7.44508078E-05  1.62988115E-04 -1.42651512E-03 -1.00349587E-02
 -1.39079390E-02  1.13632615E-03  1.47183037E-01 -6.43149043E-03 -1.20480400E-01
 -2.21872090E-01  2.60726395E-03  2.63033884E-05  1.78455982E-03 -8.60065403E-04
  1.47703501E-04 -3.46116236E-04  3.27453100E-04 -1.20781461E-04  2.27269628E-04
 -5.78912218E-04  4.85665332E-04  3.95044485E-05  6.23841635E-03  1.36090146E-01
  2.37785521E-01 -4.59996436E-02 -3.67308146E-03  6.10707299E-03 -1.80516599E-03
  1.54340920E-02 -2.45482789E-02  8.05895227E-04  6.45130585E-04 -6.58409339E-04
 -1.21214805E-04 -6.79803994E-05  2.12643319E-04 -7.26414030E-04 -1.68318811E-02
  2.47806692E-02 -1.33426701E-03  7.63153468E-04 -1.40115182E-03  5.20791144E-02
 -3.41441874E-03 -1.37713352E-01  1.21483878E-01  8.07384881E-04 -1.14226827E-02
  1.81064824E-02 -8.34899064E-04 -1.74224529E-04  1.18827511E-04  3.87565800E-04
 -7.35985116E-05 -1.62519517E-04 -1.41630679E-03 -1.00192350E-02  1.39167072E-02
  7.57562459E-04  1.34741409E-02 -1.60273486E-02  1.06902309E-03  1.46897384E-01
  6.35285439E-03  1.20409230E-01 -2.22154819E-01 -2.59713252E-03 -2.48512995E-05
  1.77549782E-03  8.57803574E-04 -1.46373008E-04 -3.48375621E-04 -3.27088689E-04
  1.19906270E-04  2.28248354E-04  5.80350531E-04 -4.68712104E-04  1.46124477E-05
  1.39228360E-03  1.59907167E-02 -2.02277108E-02 -6.16022238E-03 -1.35999342E-01
  2.38098862E-01 -7.16135711E-04  1.35560681E-02  2.23110243E-02 -3.85629731E-02
  3.91927555E-02  3.60498787E-02 -7.08520534E-03 -3.82011571E-03 -3.73002260E-03
  2.67883583E-03 -1.71499583E-03 -2.77409793E-04  6.68966061E-04 -1.05720987E-03
 -3.76468073E-04 -3.33518928E-03  2.85421717E-03 -1.00496604E-03  6.82193459E-04
 -5.11363497E-04 -7.52104348E-04  4.27376401E-02  1.41636684E-04 -6.64876037E-03
 -1.54497928E-02  4.78568746E-02 -1.15350649E-01 -1.27728281E-01 -4.67125990E-03
 -2.23068443E-03 -2.43843308E-03  1.59648283E-03 -9.64047577E-04  2.72892445E-04
  7.20299319E-04 -7.34529969E-05 -3.09246909E-04  4.09185668E-03 -2.07372747E-03
 -3.56699502E-04 -1.03116959E-03  6.25455981E-04 -9.41733734E-05 -4.65555573E-02
  1.16384875E-01 -2.01409780E-03  1.79485106E-03  3.71723807E-03  4.47415813E-02
 -1.20645800E-01 -2.62159507E-01  2.19616134E-03  7.23899972E-04  4.63062011E-04
 -9.54134511E-04  1.01432105E-03  2.58083337E-04  1.84077321E-05 -3.14457440E-05
  4.25794419E-05 -5.11798389E-04  8.62655366E-04  1.56339601E-03  6.83531793E-04
 -3.69586807E-04  8.03531390E-04 -4.82306519E-02  1.31295393E-01  2.71693746E-01
 -7.15445036E-04  1.35460059E-02 -2.23172588E-02 -3.85377563E-02  3.91457255E-02
 -3.59709559E-02 -7.07774706E-03 -3.81691270E-03  3.73036316E-03  2.67680287E-03
 -1.71266293E-03  2.74783720E-04  6.74344861E-04 -1.05804060E-03  3.76502343E-04
  6.81012315E-04 -5.08913811E-04  7.52369710E-04 -3.33447713E-03  2.86040556E-03
  1.00370148E-03  3.05594647E-03 -2.18814790E-03  4.15919541E-03  4.27021923E-02
  1.31404544E-04 -6.64563772E-03  1.54535919E-02  4.78104603E-02 -1.15349741E-01
  1.27745412E-01 -4.66646129E-03 -2.22938938E-03  2.44004524E-03  1.59440685E-03
 -9.63203955E-04 -2.74507515E-04  7.21206575E-04 -6.98077042E-05  3.07682366E-04
 -1.03069327E-03  6.25168969E-04  9.33001262E-05  4.09146369E-03 -2.07154408E-03
  3.55967325E-04 -2.18356645E-03  1.05860824E-02 -1.45349017E-02 -4.65060105E-02
  1.16373442E-01  2.00999938E-03 -1.78742126E-03  3.70805667E-03 -4.46638809E-02
  1.20654221E-01 -2.62197376E-01 -2.19813080E-03 -7.25472645E-04  4.64399539E-04
  9.55241723E-04 -1.01421621E-03  2.57177173E-04 -1.94179122E-05  3.12073575E-05
  4.39055164E-05 -6.83739664E-04  3.70219693E-04  8.01240060E-04  5.10281748E-04
 -8.60084210E-04  1.56467949E-03 -4.15216963E-03  1.45334376E-02 -1.70620365E-02
  4.81538518E-02 -1.31311380E-01  2.71739486E-01  4.90826677E-04 -5.49430016E-04
  6.23654038E-04 -7.13646750E-03 -7.57843683E-03  4.44387818E-03 -6.28665466E-02
  4.95904713E-02 -7.55491983E-02 -1.17144619E-02  1.37320635E-02 -2.50981297E-02
  2.54169876E-04  2.06702004E-04 -2.66311009E-04 -7.90704149E-07  3.91244017E-05
  3.53378950E-05 -3.30961258E-04  3.21187392E-04 -4.25686445E-04  5.93935731E-04
  3.01478238E-04 -1.29350841E-04 -5.18617137E-04 -1.15045302E-04 -1.38562615E-04
  7.94533481E-02  6.44872095E-04 -1.32149916E-04  5.79160828E-05 -8.52149393E-03
 -7.51099878E-03  4.26520700E-03  6.55434734E-02 -9.12980720E-02  9.91414731E-02
 -8.65527583E-04  3.72253866E-04  1.62284367E-02 -6.24341285E-05  1.29046555E-04
 -1.67566488E-04 -6.17181436E-05  9.71024802E-05 -3.25395155E-05 -2.50918688E-04
  4.23423015E-04 -1.54170762E-04  5.73566764E-04 -6.49788459E-05 -2.51979649E-04
 -3.72336549E-04 -2.66793522E-04 -2.43437087E-04 -5.45658236E-02  8.99718183E-02
 -1.59481296E-04 -3.89908239E-04 -2.21143991E-04 -1.07470277E-03 -1.05640120E-04
  2.38293279E-05 -7.82142471E-02  9.73561257E-02 -2.65202102E-01 -1.07638218E-04
 -2.39538486E-04  3.74771186E-03  9.82802816E-05 -1.00742416E-04  1.64021152E-04
  3.75280745E-06  1.06126714E-04 -2.57198883E-06  4.45829532E-04 -7.73989817E-05
  2.64086761E-04  2.16160672E-05  3.48957644E-05  3.04484495E-04  1.80149015E-05
 -1.80171733E-04  2.94677610E-04  8.70476671E-02 -1.07285491E-01  2.74531590E-01
  4.92129725E-04 -5.49931119E-04 -6.24551115E-04 -7.13640638E-03 -7.57465051E-03
 -4.44582849E-03 -6.28066197E-02  4.95002159E-02  7.54875526E-02 -1.17064796E-02
  1.37197152E-02  2.51117720E-02  2.53787459E-04  2.06696823E-04  2.66801853E-04
 -3.30647644E-04  3.22393648E-04  4.26099585E-04 -1.28140433E-06  3.83563578E-05
 -3.50020917E-05 -5.18214634E-04 -1.14628151E-04  1.38471433E-04  5.93428176E-04
  3.00583833E-04  1.29412782E-04  3.26077224E-03 -5.11779138E-03 -8.54499707E-03
  7.93854563E-02  6.43973080E-04 -1.33203739E-04 -5.68622749E-05 -8.52179134E-03
 -7.50745550E-03 -4.26744534E-03  6.54486720E-02 -9.11751180E-02 -9.90477412E-02
 -8.68233962E-04  3.78423410E-04 -1.62312103E-02 -6.25357734E-05  1.29052056E-04
  1.67450224E-04 -2.50350075E-04  4.24073752E-04  1.53681841E-04 -6.13667537E-05
  9.66539404E-05  3.26127232E-05 -3.71949002E-04 -2.66522070E-04  2.43256271E-04
  5.72632042E-04 -6.50208951E-05  2.52408156E-04 -5.11855631E-03  6.84267705E-03
  1.09794556E-02 -5.44671193E-02  8.98407830E-02  1.59127637E-04  3.89204313E-04
 -2.22507337E-04  1.07285974E-03  1.04783907E-04  2.26870564E-05  7.81630768E-02
 -9.72595361E-02 -2.65357604E-01  1.12145284E-04  2.32880639E-04  3.72829262E-03
 -9.82360487E-05  1.00661567E-04  1.64724481E-04 -4.46182619E-04  7.83800845E-05
  2.63647266E-04 -3.61989667E-06 -1.06182271E-04 -1.89919038E-06 -1.81331503E-05
  1.80005318E-04  2.94665743E-04 -2.12599216E-05 -3.52596700E-05  3.04923525E-04
  8.53533594E-03 -1.09639652E-02 -1.67126303E-02 -8.69919879E-02  1.07182648E-01
  2.74706045E-01  7.67093422E-06  5.94105931E-05 -3.40136077E-05  2.27746687E-04
  1.26011029E-04  2.66209546E-04 -6.95370095E-03  9.62471615E-03  2.50647963E-02
 -9.31925853E-02  4.91956425E-02  9.53820895E-02 -2.23168738E-05 -5.20000404E-05
 -4.05530387E-05  6.51781882E-05 -8.42172728E-05 -8.48710326E-05  2.10204555E-05
  1.95862040E-05  2.53711672E-05 -2.00386291E-04 -1.70726575E-04 -1.40115460E-04
  7.09348787E-07  2.28633374E-05 -4.29383589E-05 -1.62912872E-03 -3.36788311E-03
 -6.50280938E-04  1.43544164E-04  6.42491737E-03 -1.11218012E-03  9.42486966E-02
  9.53086780E-05  1.50178162E-04 -1.18218934E-04  1.44429786E-04 -8.28286780E-06
  1.60283409E-04  5.63195564E-03 -2.34656414E-03 -1.60820697E-02  5.21975438E-02
 -6.69280407E-02 -7.63822581E-02  4.37943798E-05 -2.40177455E-05  2.78844695E-05
 -1.02377902E-04 -7.37350159E-06  4.69015744E-05  1.58825506E-05 -3.49355360E-05
  2.62042643E-05  2.17165719E-05  6.31760240E-05 -5.97467374E-05  1.64781128E-05
  1.32014168E-05  4.09010405E-05 -4.18851385E-03 -3.14114920E-03 -4.53861728E-04
  7.92458037E-03  4.57792052E-03 -3.57033075E-04 -5.78056953E-02  6.26449349E-02
  9.48526771E-06  9.60378251E-06  9.01245778E-05 -5.11825474E-04 -2.57421820E-04
 -9.31761720E-05 -8.92807002E-04  9.65803373E-04  3.99750504E-03  9.86768945E-02
 -7.69480992E-02 -2.67869473E-01  6.84605848E-06  1.43429106E-05 -1.28257459E-05
 -4.39008860E-05  2.84127916E-05  1.81859526E-06 -1.21873488E-05  4.94073780E-06
 -1.84726739E-05  1.46878366E-04  3.44726412E-05  5.82586678E-05 -1.26045750E-05
 -2.54814634E-05  2.26419140E-05  2.67934922E-04 -1.47669318E-04  1.23928764E-03
 -6.49326426E-04  4.45431562E-04  1.56939889E-03 -1.07805566E-01  8.45081146E-02
  2.77838216E-01  7.90172358E-06  5.93353060E-05  3.41177621E-05  2.27141522E-04
  1.25584146E-04 -2.66055456E-04 -6.96254322E-03  9.63963351E-03 -2.50592906E-02
 -9.32403453E-02  4.92522382E-02 -9.54002997E-02 -2.24551432E-05 -5.20189590E-05
  4.05569110E-05  2.11244056E-05  1.95127255E-05 -2.54836630E-05  6.52017028E-05
 -8.40836547E-05  8.48717335E-05  5.86667454E-07  2.28610673E-05  4.27998806E-05
 -2.00393694E-04 -1.70612312E-04  1.40052400E-04  1.43921344E-04  6.42401491E-03
  1.11618672E-03 -1.62946870E-03 -3.36829203E-03  6.49054268E-04  7.28355180E-03
 -3.99510289E-03  1.08201789E-02  9.43057769E-02  9.57504341E-05  1.50379095E-04
  1.17790388E-04  1.43612114E-04 -8.81593607E-06 -1.59941504E-04  5.64121200E-03
 -2.35525031E-03  1.60790185E-02  5.22535474E-02 -6.69908021E-02  7.64481024E-02
  4.36244758E-05 -2.39904859E-05 -2.77724516E-05  1.57269113E-05 -3.50383862E-05
 -2.59326831E-05 -1.02347421E-04 -7.48578572E-06 -4.70148503E-05  1.64335812E-05
  1.32329897E-05 -4.09160838E-05  2.17778926E-05  6.32432623E-05  5.96166751E-05
  7.92477915E-03  4.57782101E-03  3.56148581E-04 -4.18842165E-03 -3.14226344E-03
  4.53412483E-04 -3.99262490E-03  5.04095268E-03 -8.63245061E-03 -5.78730700E-02
  6.27180174E-02 -9.48061103E-06 -9.51446679E-06  9.01558396E-05  5.11832530E-04
  2.57249713E-04 -9.31018378E-05  8.98966436E-04 -9.71938533E-04  4.01055783E-03
 -9.86967275E-02  7.70177512E-02 -2.67750459E-01 -6.85184312E-06 -1.43147313E-05
 -1.28483530E-05  1.22183213E-05 -5.03239100E-06 -1.84679447E-05  4.38411430E-05
 -2.83729412E-05  1.75920714E-06  1.25280825E-05  2.55302594E-05  2.24988905E-05
 -1.46703331E-04 -3.42967015E-05  5.82257306E-05  6.53430828E-04 -4.46214276E-04
  1.56875883E-03 -2.68417133E-04  1.46314803E-04  1.24025703E-03 -1.08279477E-02
  8.64289889E-03 -1.68233040E-02  1.07823311E-01 -8.45800608E-02  2.77705968E-01
Dipole Moment                              R   N=           3
  2.20583553E-01  2.63237633E-03 -8.59347222E-06
Dipole Derivatives                         R   N=         117
 -7.44738475E-03  6.64498203E-02 -3.76745278E-05 -1.39827856E-01  8.92005507E-02
 -3.01956236E-06  1.71535204E-04  1.89978125E-05  7.98567134E-02  1.80892256E-01
 -7.11167924E-02  2.28575959E-06 -1.75343448E-01  1.29884458E-02 -2.17872047E-05
 -9.92009346E-05 -4.47322500E-05  1.56098573E-01  1.18871544E-01 -1.67566671E-02
 -9.00220910E-06  6.62564024E-02  3.01139953E-02 -1.39014224E-05  3.21547709E-05
 -1.01706893E-05  1.00150851E-01 -3.00331342E-01 -2.01582054E-01  5.34467417E-06
 -2.09391331E-01 -2.19725448E-01 -5.67097549E-05  1.43232831E-05 -4.37464220E-05
  1.42977850E-01 -2.45128304E-01 -6.81084467E-02  7.61140555E-05 -2.58635196E-03
  9.03133141E-03  6.02927138E-05  3.61147480E-05  5.80086362E-05  7.50863085E-02
  5.11174742E-02 -2.01519047E-04 -1.86005490E-02  6.54903447E-02 -3.01760397E-02
 -1.00853426E-01  8.43382534E-03 -1.09501418E-01 -7.86908783E-02  5.10905644E-02
 -1.17516791E-04  1.85524395E-02  6.54479329E-02 -2.99507016E-02  1.00784403E-01
 -8.56659338E-03  1.09443329E-01 -7.88855585E-02 -3.18334950E-02  3.08499708E-02
  8.29131462E-03  2.96818719E-02 -3.18604143E-02 -6.95325495E-02  3.00656380E-02
 -6.59525953E-02 -6.99471837E-02 -3.18210894E-02  3.08201414E-02 -8.27201834E-03
  2.96663160E-02 -3.18388453E-02  6.95776912E-02 -3.00616675E-02  6.59658375E-02
 -6.99784435E-02  6.31747358E-02  5.26922719E-02 -4.09690877E-02  3.88037181E-02
  1.79499145E-02  4.80969115E-02 -4.54562384E-02  5.67782168E-02 -5.42337635E-02
  6.31661654E-02  5.26608360E-02  4.09621163E-02  3.87566175E-02  1.80069569E-02
 -4.80776163E-02  4.54330516E-02 -5.67668371E-02 -5.43189169E-02  4.41488402E-02
  6.21863259E-02  3.80192430E-02  9.65043318E-02  8.31529193E-02 -3.51543195E-02
  6.28111460E-02 -4.75776082E-02 -7.40816406E-02  4.41000349E-02  6.22236299E-02
 -3.80205261E-02  9.65414522E-02  8.31073351E-02  3.51940306E-02 -6.28140886E-02
  4.76327184E-02 -7.40339103E-02
Polarizability                             R   N=           6
  7.40754097E+01 -3.50946981E+00  3.80794233E+01 -4.38021977E-03 -8.13813835E-05
  3.99389733E+01
Anisotropic Hyperfine tensors              R   N=          78
  2.09068158E-02 -1.41435868E-02 -5.21678862E-03  8.32119007E-06 -1.21073553E-06
 -1.56900272E-02  3.79621293E-01  6.24076505E-01  4.75445143E-02  9.85538356E-05
  7.87751238E-05 -4.27165807E-01 -1.28902488E-02 -1.42640130E-01 -6.25847992E-02
 -2.30387664E-05 -1.43809927E-05  7.54750480E-02  1.37023079E-02  3.31809557E-01
  2.11695575E-01  3.96415041E-05  4.77494380E-05 -2.25397882E-01  1.16305492E-02
 -3.43940621E-03 -2.74569380E-03 -4.16656231E-06 -2.89555235E-06 -8.88485537E-03
  8.66716824E-04 -9.04228091E-03  4.05023858E-03 -5.61946326E-03  6.73800234E-03
 -4.91695540E-03  8.71475723E-04 -9.03606131E-03  4.03604943E-03  5.62577966E-03
 -6.74331196E-03 -4.90752515E-03 -2.02564807E-02  1.19849760E-02 -6.83948887E-03
 -1.74720229E-02  4.89411084E-02  2.70959696E-02 -2.02682591E-02  1.20003095E-02
 -6.84601674E-03  1.74573185E-02 -4.89333196E-02  2.71142758E-02  6.71152436E-03
  3.81859353E-03  4.59544556E-03 -8.70848873E-03 -8.51233309E-04 -1.13069699E-02
  6.71913981E-03  3.81258723E-03  4.59420449E-03  8.70394602E-03  8.59560144E-04
 -1.13133443E-02 -6.84054836E-03  6.45722960E-03 -7.80681307E-03 -2.18653550E-02
  1.56303171E-02  1.46473614E-02 -6.82965576E-03  6.44454628E-03 -7.79420493E-03
  2.18731334E-02 -1.56411804E-02  1.46238607E-02
Isotropic Hyperfine splittings             R   N=          13
 -1.70371296E-02  1.81817284E-01 -1.98638736E-02  4.60566392E-02  2.41464237E-02
  4.62232699E-03  4.60123653E-03 -1.03810308E-02 -1.03791492E-02  7.18496447E-03
  7.18361401E-03 -6.56116367E-03 -6.56110665E-03
QEq coupling tensors                       R   N=          78
 -2.61669484E-02  7.69532974E-03  7.43993615E-04 -8.06266255E-06  6.77836476E-06
  2.54229548E-02 -7.98689577E-02 -1.00506871E-01 -2.33228584E-02 -3.23030660E-05