no comment                                                              
Freq      ONIOM(B3LYP/6-31+G(d):MNDO/ZDO)                             Mixed               
Number of atoms                            I              179
Charge                                     I                0
Multiplicity                               I                1
Number of electrons                        I                0
Number of alpha electrons                  I                0
Number of beta electrons                   I                0
Number of basis functions                  I                0
Number of independant functions            I                0
Number of point charges in /Mol/           I                0
Number of translation vectors              I                0
Info1-9                                    I   N=           9
         188         188           0           0           0         201
           6           8         401
Num ILSW                                   I              100
ILSW                                       I   N=         100
           0           0           0           0           0           0
           0           0           0           0           0     1000000
           5           0           0           0           0           0
           0     1000000           0           0           1           0
           1           0           0           0     1000000           0
           0           0      100000        8193          -1           0
           0           0           0           0           0           0
           0           0           0           1           0           0
           0           0           1     1000000     1000000           0
           0           0           0           0           0           0
           0           0           0           0           0           0
           0           0           0           0           0           0
           0           0           0           0           0           0
           0           0           0           0           0           0
           0           0           0           0           0           0
           0           0           0           0           0           0
           0           0           0           0
Number of contracted shells                I              179
Highest angular momentum                   I                1
Largest degree of contraction              I                3
Number of primitive shells                 I              537
Pure/Cartesian d shells                    I                0
Pure/Cartesian f shells                    I                0
Virial Ratio                               R      2.004656134045230E+00
SCF Energy                                 R     -9.976819112977993E-01
Total Energy                               R     -3.052580758693025E+03
RMS Force                                  R      2.853603966082425E-03
RMS Density                                R      6.036826821704645E-09
Atomic numbers                             I   N=         179
           8          13           8          14           8          14
           8          14           8          14           8          14
           8          14           8          14           8          14
           8          14           8          14           8          14
           8          14           8          14           8           8
          14           8          14           8          14           8
          14           8          14           8          14           8
          14           8           8           8          14           8
           8          14           8           8           8          14
           8          14           8           8          14           8
          14           8           8          14           8           8
          14           8          14           8          14           8
           8           8           8           8          14           8
          14           8          14           8          14           8
          14           8          14           8          14           8
           8           8          14           8          14           8
          14           8          14           8          14           8
          14           8          14           8           8          14
           8           8           8           8           8           8
           1           1           1           1           1           1
           1           1           1           1           1           1
           1           1           1           1           1           1
           1           1           1           1           1           1
           1           1           1           1           1           1
           1           1           1           1           1           1
           1           1           1           1           1           1
           1           1           1           1           1           1
           6           6           6           1           6           6
           6           1           1           1           1           1
           1           1           1           1           1
Nuclear charges                            R   N=         179
  8.00000000E+00  1.30000000E+01  8.00000000E+00  1.40000000E+01  8.00000000E+00
  1.40000000E+01  8.00000000E+00  1.40000000E+01  8.00000000E+00  1.40000000E+01
  8.00000000E+00  1.40000000E+01  8.00000000E+00  1.40000000E+01  8.00000000E+00
  1.40000000E+01  8.00000000E+00  1.40000000E+01  8.00000000E+00  1.40000000E+01
  8.00000000E+00  1.40000000E+01  8.00000000E+00  1.40000000E+01  8.00000000E+00
  1.40000000E+01  8.00000000E+00  1.40000000E+01  8.00000000E+00  8.00000000E+00
  1.40000000E+01  8.00000000E+00  1.40000000E+01  8.00000000E+00  1.40000000E+01
  8.00000000E+00  1.40000000E+01  8.00000000E+00  1.40000000E+01  8.00000000E+00
  1.40000000E+01  8.00000000E+00  1.40000000E+01  8.00000000E+00  8.00000000E+00
  8.00000000E+00  1.40000000E+01  8.00000000E+00  8.00000000E+00  1.40000000E+01
  8.00000000E+00  8.00000000E+00  8.00000000E+00  1.40000000E+01  8.00000000E+00
  1.40000000E+01  8.00000000E+00  8.00000000E+00  1.40000000E+01  8.00000000E+00
  1.40000000E+01  8.00000000E+00  8.00000000E+00  1.40000000E+01  8.00000000E+00
  8.00000000E+00  1.40000000E+01  8.00000000E+00  1.40000000E+01  8.00000000E+00
  1.40000000E+01  8.00000000E+00  8.00000000E+00  8.00000000E+00  8.00000000E+00
  8.00000000E+00  1.40000000E+01  8.00000000E+00  1.40000000E+01  8.00000000E+00
  1.40000000E+01  8.00000000E+00  1.40000000E+01  8.00000000E+00  1.40000000E+01
  8.00000000E+00  1.40000000E+01  8.00000000E+00  1.40000000E+01  8.00000000E+00
  8.00000000E+00  8.00000000E+00  1.40000000E+01  8.00000000E+00  1.40000000E+01
  8.00000000E+00  1.40000000E+01  8.00000000E+00  1.40000000E+01  8.00000000E+00
  1.40000000E+01  8.00000000E+00  1.40000000E+01  8.00000000E+00  1.40000000E+01
  8.00000000E+00  8.00000000E+00  1.40000000E+01  8.00000000E+00  8.00000000E+00
  8.00000000E+00  8.00000000E+00  8.00000000E+00  8.00000000E+00  1.00000000E+00
  1.00000000E+00  1.00000000E+00  1.00000000E+00  1.00000000E+00  1.00000000E+00
  1.00000000E+00  1.00000000E+00  1.00000000E+00  1.00000000E+00  1.00000000E+00
  1.00000000E+00  1.00000000E+00  1.00000000E+00  1.00000000E+00  1.00000000E+00
  1.00000000E+00  1.00000000E+00  1.00000000E+00  1.00000000E+00  1.00000000E+00
  1.00000000E+00  1.00000000E+00  1.00000000E+00  1.00000000E+00  1.00000000E+00
  1.00000000E+00  1.00000000E+00  1.00000000E+00  1.00000000E+00  1.00000000E+00
  1.00000000E+00  1.00000000E+00  1.00000000E+00  1.00000000E+00  1.00000000E+00
  1.00000000E+00  1.00000000E+00  1.00000000E+00  1.00000000E+00  1.00000000E+00
  1.00000000E+00  1.00000000E+00  1.00000000E+00  1.00000000E+00  1.00000000E+00
  1.00000000E+00  1.00000000E+00  6.00000000E+00  6.00000000E+00  6.00000000E+00
  1.00000000E+00  6.00000000E+00  6.00000000E+00  6.00000000E+00  1.00000000E+00
  1.00000000E+00  1.00000000E+00  1.00000000E+00  1.00000000E+00  1.00000000E+00
  1.00000000E+00  1.00000000E+00  1.00000000E+00  1.00000000E+00
Current cartesian coordinates              R   N=         537
  1.47642217E+00  6.39872436E-01 -2.41076135E-01  3.24675731E+00  8.81556975E-01
  2.81784057E+00  6.48778314E+00  7.95394737E-01  2.69613086E+00  8.69994182E+00
 -7.24676518E-01  4.26290280E+00  8.48786731E+00 -5.69541330E-01  7.40340843E+00
  8.65312574E+00 -7.67843530E-01  1.04394746E+01  6.06727181E+00  4.25044342E-01
  1.15413965E+01  3.08212627E+00  1.01847331E+00  1.18168449E+01  2.68177661E+00
  4.04069911E+00  1.18448601E+01  3.68887228E+00  6.64328658E+00  1.06451013E+01
  4.06343109E+00  6.15573155E+00  7.68336569E+00  3.56900505E+00  6.38979683E+00
  4.60828427E+00  6.28779000E+00  7.41548523E+00  3.39236077E+00  9.23448157E+00
  8.11841973E+00  3.07833931E+00  9.68785336E+00  8.77159409E+00  1.07495189E-01
  9.33283993E+00  8.12135636E+00 -2.85826368E+00  1.09821228E+01  5.63679159E+00
 -3.50673832E+00  1.28453625E+01  3.31993623E+00 -2.80743383E+00  1.12811510E+01
  7.47903770E-01 -3.24593722E+00  8.67892807E+00 -7.35578347E-01 -4.07370152E+00
  8.44663160E+00 -5.01110565E-01 -7.20854741E+00  8.86524183E+00 -7.70281288E-01
 -1.02353312E+01  6.35323840E+00  4.34364456E-01 -1.14855495E+01  3.38078426E+00
  1.04099316E+00 -1.18104425E+01  2.01893039E+00 -2.64544766E-02 -9.30558217E+00
  1.26680415E+00 -2.26287918E+00 -7.28818803E+00  2.24438219E+00 -1.57582772E+00
 -4.43475448E+00  3.22898255E+00  8.27000582E-01 -2.87465895E+00  6.24617219E+00
  6.13024839E-01 -2.55939405E+00  2.52677747E+00  3.59301544E+00 -3.90680279E+00
  3.75050569E+00  6.37336376E+00 -4.57665024E+00  1.65761899E+00  8.57709824E+00
 -3.92604399E+00  1.01309403E+00  1.13905490E+01 -2.97477853E+00  1.56046267E+00
  1.15866969E+01  1.35644616E-02  9.22111280E-01  1.14392680E+01  2.99906152E+00
 -2.06942154E+00  1.18360691E+01  3.34686184E+00 -4.57075370E+00  1.30709524E+01
  4.47982069E+00 -6.93048504E+00  1.13963944E+01  3.58370310E+00 -9.82958763E+00
  1.09418927E+01  2.80514161E+00 -1.00213438E+01  1.02732736E+01 -1.30096299E-01
 -9.74787398E+00  1.09422536E+01 -3.05590069E+00 -6.82492494E+00  1.13940983E+01
 -3.75483669E+00 -4.44635869E+00  1.30588449E+01 -4.61723967E+00 -1.95014581E+00
  1.18037151E+01 -3.48800358E+00  6.42101190E+00  7.25056882E+00 -3.21767637E+00
  4.26608911E+00  6.30651845E+00 -7.63164765E+00  3.93840873E+00  6.66077976E+00
 -1.06104683E+01  2.95698310E+00  4.04808226E+00 -1.18022354E+01  1.35219014E+01
  3.59719303E+00  1.40223356E-01  1.27865353E+01  3.31196159E+00  3.08838510E+00
  1.08479542E+01  5.59725286E+00  3.70047306E+00  1.14190273E+01  6.37099671E-01
  3.51594130E+00  8.91597326E+00 -3.73896546E+00  3.48757463E+00  8.19300168E+00
 -6.65137165E+00  3.04134792E+00  7.56373230E+00 -7.08143738E+00  9.44598579E-02
  8.25811786E+00 -6.67201880E+00 -2.82150473E+00  8.90593881E+00 -3.73755194E+00
 -3.33153425E+00  5.67292524E+00 -7.10545003E+00  4.67847626E+00  4.03879212E+00
 -7.32324277E+00  7.22049806E+00  6.07841697E+00 -7.72817339E+00  9.47125448E+00
  7.95092398E+00 -6.70993236E+00  1.16431753E+01  8.58403342E+00 -3.76728677E+00
  1.11225482E+01  2.41422492E+00 -4.90522093E+00  8.13162006E+00  1.00184565E+00
 -2.25197166E+00  7.19594673E+00  2.17913939E+00 -1.73265609E+00  4.35934686E+00
  2.13492692E+00 -9.67957620E+00  7.00047724E+00  7.54704850E-01 -1.19232933E+01
  8.49392970E+00 -2.12645288E+00 -1.20425009E+01  7.53984665E+00 -4.59465621E+00
 -1.03078228E+01  7.18798910E+00 -3.80199342E+00 -7.36918348E+00  7.39874647E+00
 -4.17748185E+00 -4.50171869E+00  8.38463172E+00 -2.00001647E+00 -2.71036426E+00
  7.27984302E+00  1.73282396E+00 -6.30660152E-02  9.31664464E+00  1.56140549E+00
  8.73616784E+00  4.17123597E+00  2.21756916E+00  3.88683574E+00  3.44007258E+00
 -1.09270802E+01  8.63962807E+00  4.43822781E+00 -1.19848885E+01  7.76949050E+00
  7.13065481E+00 -1.15608322E+01  4.78371752E+00  7.34247421E+00 -1.25610020E+01
  2.09019643E+00  8.28917598E+00 -1.03672663E+01  5.62254901E-02  7.80281716E+00
 -9.77490726E+00 -2.87583393E+00  7.25221144E+00 -1.08634727E+01 -3.58525596E+00
  4.48852098E+00 -1.16301102E+01 -5.99310527E+00  2.80076500E+00 -1.10993976E+01
 -5.49347305E+00 -1.50301250E-01 -1.16412199E+01 -6.04469290E+00 -3.08783895E+00
 -9.92882954E+00 -8.46138816E+00 -3.89970120E+00 -8.33718327E+00 -1.09562330E+01
 -3.06454808E+00 -7.84168195E+00 -1.07317147E+01 -8.87736572E-02 -8.39274689E+00
 -1.09543962E+01  2.88171331E+00 -9.97744463E+00 -8.43545545E+00  3.64994934E+00
 -6.83372809E+00 -3.50952729E+00  7.32606761E+00  5.76848491E+00 -7.13488441E+00
 -4.51435542E+00  4.24143500E+00 -7.39223668E+00 -7.11004733E+00  2.26141385E+00
 -9.67837812E+00 -6.95062247E+00  9.32443040E-01 -1.19435455E+01 -8.46772296E+00
 -1.96417832E+00 -1.20576773E+01 -7.57564750E+00 -4.43887853E+00 -1.03183071E+01
 -7.28116014E+00 -3.64910513E+00 -7.37603374E+00 -7.49332914E+00 -4.00826443E+00
 -4.50821180E+00 -8.47040070E+00 -6.64619167E+00 -3.45835918E+00 -7.41208793E+00
 -9.61230011E+00 -2.88942296E+00 -7.45676294E+00 -1.01857714E+01  4.50760961E-02
 -8.01498048E+00 -1.23651244E+01  2.07778659E+00 -8.58255595E+00 -1.13850234E+01
  4.77087493E+00 -7.61472893E+00 -1.18109316E+01  7.75984722E+00 -7.42224898E+00
 -1.07976075E+01  8.63347323E+00 -4.71529000E+00  6.32112017E+00 -7.80885149E+00
 -9.31767453E+00  8.21037771E+00 -6.73144880E+00 -1.14484919E+01  8.80301488E+00
 -3.78272395E+00 -1.08551519E+01  2.75687196E+00 -4.89173397E+00 -8.05427356E+00
 -5.81430628E+00 -1.08960133E+01  4.46783037E+00 -1.08422624E+01 -3.63788861E+00
 -4.76881460E+00 -1.78828589E+00 -2.76253961E+00 -7.38200538E+00 -5.72072137E+00
 -1.08837036E+01 -4.59214221E+00 -1.41006380E+01 -6.56688646E+00  3.16079373E+00
  1.00851343E+01  1.00779126E+01  4.54019932E+00  1.92841364E+00 -1.40605283E+01
  7.91633490E+00  7.36266823E-01 -1.13429320E+01  1.10191821E+01 -6.25999629E+00
 -1.08192941E+01  9.09461694E+00 -9.75680991E+00 -1.31034173E+01  3.33250370E+00
  9.85782483E-01 -1.13242067E+01 -1.09839028E+01  2.11730877E+00 -1.40715114E+01
 -7.87602136E+00 -6.03946903E+00 -1.08212179E+01 -9.23803391E+00 -9.67134704E+00
 -1.31094833E+01 -3.55760975E+00 -1.41074523E+01 -6.67829338E+00 -3.47896691E+00
  2.33405616E+00  1.31483967E+01 -4.34568224E+00 -4.60997105E+00  1.54365002E+01
 -3.59416650E+00 -4.40655916E+00  1.31869570E+01 -7.20466592E+00 -1.10392995E+01
  1.31325597E+01 -3.58621454E+00 -1.05387868E+01  9.00853850E+00 -9.29173237E+00
 -1.46191349E+01  1.45585894E+00 -7.42821674E+00 -1.27166663E+01  2.25574778E+00
 -1.11393384E+01 -1.07146776E+01 -4.35456347E+00 -9.29307408E+00 -3.94110356E+00
 -4.45532404E+00 -1.10526132E+01 -1.09426239E+01 -4.33847244E+00  9.03692738E+00
 -1.29872203E+01  2.27225078E+00  1.08294082E+01 -1.47835921E+01  1.46799477E+00
  7.07153850E+00 -1.45156966E+01  8.30392031E+00  7.16523491E+00 -1.07672434E+01
  9.03285173E+00  9.02371820E+00 -1.11274949E+01  1.31334724E+01  3.28884347E+00
 -4.59084903E+00  1.32328017E+01  7.06535532E+00 -4.70303062E+00  1.54327113E+01
  3.42227892E+00  2.21420973E+00  1.31982458E+01  4.33518105E+00  1.98720045E+00
  8.48029323E+00  1.11394159E+01  6.02004980E+00  7.11876612E+00  1.15731987E+01
 -1.43417095E+01  8.29905236E+00 -7.53258631E+00 -4.23557581E+00 -4.46846518E+00
  1.09613300E+01  2.19384155E+00  6.30183773E-02  1.39788806E+01  1.06628231E+01
  5.03632135E-01  1.14970711E+01  1.00940642E+01 -8.12064894E+00  1.14209662E+01
  6.75754868E+00 -7.01286107E+00  1.39274952E+01  1.02250260E+01 -8.10822778E+00
  3.67414162E+00  1.48296278E+01  3.38357643E+00  4.52766099E+00  1.49005946E+01
  3.35803300E+00 -4.24778120E+00  1.01535840E+01  1.00479359E+01 -4.38043430E+00
  6.29508999E+00  7.05667159E+00 -1.14299953E+01  2.23131338E+00  8.44801291E+00
 -1.11038758E+01  2.49391683E+00  2.35400924E-02 -1.39173076E+01  1.09071666E+01
  5.04951150E-01 -1.12416935E+01  7.04775014E+00 -7.00997736E+00 -1.37588333E+01
  1.03482380E+01 -8.13579889E+00 -1.11853627E+01  1.03034855E+01 -8.09110309E+00
 -3.49155437E+00 -1.22305722E+00  1.78348004E+00 -3.27304338E-01 -2.54948626E+00
  1.19134387E+00 -2.79319474E+00 -2.59566930E+00  6.93217735E-01  1.94685445E+00
 -1.00355381E+01  1.36060705E+00 -6.99121183E-01 -5.48712604E+00  5.20139764E-01
  1.80833186E+00 -6.98139851E+00  2.89613598E+00  1.43401113E+00 -9.18601915E+00
  3.01104467E+00  1.94673925E-01 -1.02574295E+01  4.75291113E+00  5.19939322E-02
 -6.23938611E+00  4.59806298E+00  2.33160458E+00 -5.94026918E+00 -2.68223719E-01
  3.68134903E+00 -6.08554947E+00 -9.31472230E-01  4.57483807E-01 -2.07680903E+00
  1.74905494E+00  3.64413088E+00 -1.93597735E+00 -1.23808052E+00  2.24834703E+00
 -8.72316377E-01  3.80033370E+00 -1.22097088E-01 -4.38574254E+00  2.14060254E+00
 -2.71994140E+00 -2.88676847E+00 -8.34718425E-01 -2.98386244E+00 -1.57195923E+00
  1.93804076E+00 -4.44329793E+00
Int Atom Types                             I   N=         179
           0           0           0           0           0           0
           0           0           0           0           0           0
           0           0           0           0           0           0
           0           0           0           0           0           0
           0           0           0           0           0           0
           0           0           0           0           0           0
           0           0           0           0           0           0
           0           0           0           0           0           0
           0           0           0           0           0           0
           0           0           0           0           0           0
           0           0           0           0           0           0
           0           0           0           0           0           0
           0           0           0           0           0           0
           0           0           0           0           0           0
           0           0           0           0           0           0
           0           0           0           0           0           0
           0           0           0           0           0           0
           0           0           0           0           0           0
           0           0           0           0           0           0
           0           0           0           0           0           0
           0           0           0           0           0           0
           0           0           0           0           0           0
           0           0           0           0           0           0
           0           0           0           0           0           0
           0           0           0           0           0           0
           0           0           0           0           0           0
           0           0           0           0           0           0
           0           0           0           0           0           0
           0           0           0           0           0           0
           0           0           0           0           0
Force Field                                I                0
MM charges                                 R   N=         179
  0.00000000E+00  0.00000000E+00  0.00000000E+00  0.00000000E+00  0.00000000E+00
  0.00000000E+00  0.00000000E+00  0.00000000E+00  0.00000000E+00  0.00000000E+00
  0.00000000E+00  0.00000000E+00  0.00000000E+00  0.00000000E+00  0.00000000E+00
  0.00000000E+00  0.00000000E+00  0.00000000E+00  0.00000000E+00  0.00000000E+00
  0.00000000E+00  0.00000000E+00  0.00000000E+00  0.00000000E+00  0.00000000E+00
  0.00000000E+00  0.00000000E+00  0.00000000E+00  0.00000000E+00  0.00000000E+00
  0.00000000E+00  0.00000000E+00  0.00000000E+00  0.00000000E+00  0.00000000E+00
  0.00000000E+00  0.00000000E+00  0.00000000E+00  0.00000000E+00  0.00000000E+00
  0.00000000E+00  0.00000000E+00  0.00000000E+00  0.00000000E+00  0.00000000E+00
  0.00000000E+00  0.00000000E+00  0.00000000E+00  0.00000000E+00  0.00000000E+00
  0.00000000E+00  0.00000000E+00  0.00000000E+00  0.00000000E+00  0.00000000E+00
  0.00000000E+00  0.00000000E+00  0.00000000E+00  0.00000000E+00  0.00000000E+00
  0.00000000E+00  0.00000000E+00  0.00000000E+00  0.00000000E+00  0.00000000E+00
  0.00000000E+00  0.00000000E+00  0.00000000E+00  0.00000000E+00  0.00000000E+00
  0.00000000E+00  0.00000000E+00  0.00000000E+00  0.00000000E+00  0.00000000E+00
  0.00000000E+00  0.00000000E+00  0.00000000E+00  0.00000000E+00  0.00000000E+00
  0.00000000E+00  0.00000000E+00  0.00000000E+00  0.00000000E+00  0.00000000E+00
  0.00000000E+00  0.00000000E+00  0.00000000E+00  0.00000000E+00  0.00000000E+00
  0.00000000E+00  0.00000000E+00  0.00000000E+00  0.00000000E+00  0.00000000E+00
  0.00000000E+00  0.00000000E+00  0.00000000E+00  0.00000000E+00  0.00000000E+00
  0.00000000E+00  0.00000000E+00  0.00000000E+00  0.00000000E+00  0.00000000E+00
  0.00000000E+00  0.00000000E+00  0.00000000E+00  0.00000000E+00  0.00000000E+00
  0.00000000E+00  0.00000000E+00  0.00000000E+00  0.00000000E+00  0.00000000E+00
  0.00000000E+00  0.00000000E+00  0.00000000E+00  0.00000000E+00  0.00000000E+00
  0.00000000E+00  0.00000000E+00  0.00000000E+00  0.00000000E+00  0.00000000E+00
  0.00000000E+00  0.00000000E+00  0.00000000E+00  0.00000000E+00  0.00000000E+00
  0.00000000E+00  0.00000000E+00  0.00000000E+00  0.00000000E+00  0.00000000E+00
  0.00000000E+00  0.00000000E+00  0.00000000E+00  0.00000000E+00  0.00000000E+00
  0.00000000E+00  0.00000000E+00  0.00000000E+00  0.00000000E+00  0.00000000E+00
  0.00000000E+00  0.00000000E+00  0.00000000E+00  0.00000000E+00  0.00000000E+00
  0.00000000E+00  0.00000000E+00  0.00000000E+00  0.00000000E+00  0.00000000E+00
  0.00000000E+00  0.00000000E+00  0.00000000E+00  0.00000000E+00  0.00000000E+00
  0.00000000E+00  0.00000000E+00  0.00000000E+00  0.00000000E+00  0.00000000E+00
  0.00000000E+00  0.00000000E+00  0.00000000E+00  0.00000000E+00  0.00000000E+00
  0.00000000E+00  0.00000000E+00  0.00000000E+00  0.00000000E+00  0.00000000E+00
  0.00000000E+00  0.00000000E+00  0.00000000E+00  0.00000000E+00
Integer atomic weights                     I   N=         179
          16          27          16          28          16          28
          16          28          16          28          16          28
          16          28          16          28          16          28
          16          28          16          28          16          28
          16          28          16          28          16          16
          28          16          28          16          28          16
          28          16          28          16          28          16
          28          16          16          16          28          16
          16          28          16          16          16          28
          16          28          16          16          28          16
          28          16          16          28          16          16
          28          16          28          16          28          16
          16          16          16          16          28          16
          28          16          28          16          28          16
          28          16          28          16          28          16
          16          16          28          16          28          16
          28          16          28          16          28          16
          28          16          28          16          16          28
          16          16          16          16          16          16
           1           1           1           1           1           1
           1           1           1           1           1           1
           1           1           1           1           1           1
           1           1           1           1           1           1
           1           1           1           1           1           1
           1           1           1           1           1           1
           1           1           1           1           1           1
           1           1           1           1           1           1
          12          12          12           1          12          12
          12           1           1           1           1           1
           1           1           1           1           1
Real atomic weights                        R   N=         179
  1.59949146E+01  2.69815413E+01  1.59949146E+01  2.79769284E+01  1.59949146E+01
  2.79769284E+01  1.59949146E+01  2.79769284E+01  1.59949146E+01  2.79769284E+01
  1.59949146E+01  2.79769284E+01  1.59949146E+01  2.79769284E+01  1.59949146E+01
  2.79769284E+01  1.59949146E+01  2.79769284E+01  1.59949146E+01  2.79769284E+01
  1.59949146E+01  2.79769284E+01  1.59949146E+01  2.79769284E+01  1.59949146E+01
  2.79769284E+01  1.59949146E+01  2.79769284E+01  1.59949146E+01  1.59949146E+01
  2.79769284E+01  1.59949146E+01  2.79769284E+01  1.59949146E+01  2.79769284E+01
  1.59949146E+01  2.79769284E+01  1.59949146E+01  2.79769284E+01  1.59949146E+01
  2.79769284E+01  1.59949146E+01  2.79769284E+01  1.59949146E+01  1.59949146E+01
  1.59949146E+01  2.79769284E+01  1.59949146E+01  1.59949146E+01  2.79769284E+01
  1.59949146E+01  1.59949146E+01  1.59949146E+01  2.79769284E+01  1.59949146E+01
  2.79769284E+01  1.59949146E+01  1.59949146E+01  2.79769284E+01  1.59949146E+01
  2.79769284E+01  1.59949146E+01  1.59949146E+01  2.79769284E+01  1.59949146E+01
  1.59949146E+01  2.79769284E+01  1.59949146E+01  2.79769284E+01  1.59949146E+01
  2.79769284E+01  1.59949146E+01  1.59949146E+01  1.59949146E+01  1.59949146E+01
  1.59949146E+01  2.79769284E+01  1.59949146E+01  2.79769284E+01  1.59949146E+01
  2.79769284E+01  1.59949146E+01  2.79769284E+01  1.59949146E+01  2.79769284E+01
  1.59949146E+01  2.79769284E+01  1.59949146E+01  2.79769284E+01  1.59949146E+01
  1.59949146E+01  1.59949146E+01  2.79769284E+01  1.59949146E+01  2.79769284E+01
  1.59949146E+01  2.79769284E+01  1.59949146E+01  2.79769284E+01  1.59949146E+01
  2.79769284E+01  1.59949146E+01  2.79769284E+01  1.59949146E+01  2.79769284E+01
  1.59949146E+01  1.59949146E+01  2.79769284E+01  1.59949146E+01  1.59949146E+01
  1.59949146E+01  1.59949146E+01  1.59949146E+01  1.59949146E+01  1.00782504E+00
  1.00782504E+00  1.00782504E+00  1.00782504E+00  1.00782504E+00  1.00782504E+00
  1.00782504E+00  1.00782504E+00  1.00782504E+00  1.00782504E+00  1.00782504E+00
  1.00782504E+00  1.00782504E+00  1.00782504E+00  1.00782504E+00  1.00782504E+00
  1.00782504E+00  1.00782504E+00  1.00782504E+00  1.00782504E+00  1.00782504E+00
  1.00782504E+00  1.00782504E+00  1.00782504E+00  1.00782504E+00  1.00782504E+00
  1.00782504E+00  1.00782504E+00  1.00782504E+00  1.00782504E+00  1.00782504E+00
  1.00782504E+00  1.00782504E+00  1.00782504E+00  1.00782504E+00  1.00782504E+00
  1.00782504E+00  1.00782504E+00  1.00782504E+00  1.00782504E+00  1.00782504E+00
  1.00782504E+00  1.00782504E+00  1.00782504E+00  1.00782504E+00  1.00782504E+00
  1.00782504E+00  1.00782504E+00  1.20000000E+01  1.20000000E+01  1.20000000E+01
  1.00782504E+00  1.20000000E+01  1.20000000E+01  1.20000000E+01  1.00782504E+00
  1.00782504E+00  1.00782504E+00  1.00782504E+00  1.00782504E+00  1.00782504E+00
  1.00782504E+00  1.00782504E+00  1.00782504E+00  1.00782504E+00
Atom residue info                          I   N=         179
           0           0           0           0           0           0
           0           0           0           0           0           0
           0           0           0           0           0           0
           0           0           0           0           0           0
           0           0           0           0           0           0
           0           0           0           0           0           0
           0           0           0           0           0           0
           0           0           0           0           0           0
           0           0           0           0           0           0
           0           0           0           0           0           0
           0           0           0           0           0           0
           0           0           0           0           0           0
           0           0           0           0           0           0
           0           0           0           0           0           0
           0           0           0           0           0           0
           0           0           0           0           0           0
           0           0           0           0           0           0
           0           0           0           0           0           0
           0           0           0           0           0           0
           0           0           0           0           0           0
           0           0           0           0           0           0
           0           0           0           0           0           0
           0           0           0           0           0           0
           0           0           0           0           0           0
           0           0           0           0           0           0
           0           0           0           0           0           0
           0           0           0           0           0           0
           0           0           0           0           0           0
           0           0           0           0           0           0
           0           0           0           0           0
Atom fragment info                         I   N=         179
           0           0           0           0           0           0
           0           0           0           0           0           0
           0           0           0           0           0           0