no title                                                                
Freq      UB3LYP                                                      6-31G(d)            
Number of atoms                            I               13
Charge                                     I                0
Multiplicity                               I                2
Number of electrons                        I               33
Number of alpha electrons                  I               17
Number of beta electrons                   I               16
Number of basis functions                  I               78
Number of independant functions            I               78
Number of point charges in /Mol/           I                0
Number of translation vectors              I                0
Info1-9                                    I   N=           9
          23          22           0           0           0         100
           6          18        -502
Num ILSW                                   I              100
ILSW                                       I   N=         100
           1           1           0           0           2           0
           0           0           0           0         402      200000
           0           0           0           0           0           0
           0      800000           0           0           1           0
           1           0           0           0     1000000           0
           0           0      100000           0          -1           0
           0           0           0           0           0           0
           0           0           0           1           0           0
           0           0           1      720000      810000           0
           0           0           0           0           0           0
           0           0           0           0           0           0
           0           0           0           0           0           0
           0           0           0           0           0           0
           0           0           0           0           0           0
           0           0           0           0           0           0
           0           0           0           0           0           0
           0           0           0           0
Number of contracted shells                I               34
Highest angular momentum                   I                2
Largest degree of contraction              I                6
Number of primitive shells                 I               80
Pure/Cartesian d shells                    I                1
Pure/Cartesian f shells                    I                0
Virial Ratio                               R      2.010405928721580E+00
SCF Energy                                 R     -1.577371094502940E+02
Total Energy                               R     -1.577371094502940E+02
S**2                                       R      7.805383864215933E-01
S**2 after annihilation                    R      7.501869797682847E-01
RMS Force                                  R      1.014762689421262E-05
RMS Density                                R      8.103694412689013E-09
Atomic numbers                             I   N=          13
           6           6           6           6           1           1
           1           1           1           1           1           1
           1
Nuclear charges                            R   N=          13
  6.00000000E+00  6.00000000E+00  6.00000000E+00  6.00000000E+00  1.00000000E+00
  1.00000000E+00  1.00000000E+00  1.00000000E+00  1.00000000E+00  1.00000000E+00
  1.00000000E+00  1.00000000E+00  1.00000000E+00
Current cartesian coordinates              R   N=          39
  3.82519229E+00 -4.83707821E-01  2.59896419E-04  1.66976804E+00  1.35054509E+00
 -2.35644761E-04 -1.97045499E+00 -1.14253081E+00 -3.86099063E-04 -4.08995602E+00
  3.04804174E-01  3.48849120E-04  5.66946826E+00  4.89683196E-01 -7.24574587E-04
  3.79800526E+00 -1.70524962E+00 -1.67463994E+00  3.79874011E+00 -1.70343158E+00
  1.67647937E+00  1.28914317E+00  2.39687808E+00  1.72632847E+00  1.28974885E+00
  2.39681886E+00 -1.72696440E+00 -1.28530919E+00 -1.99673077E+00  1.73671858E+00
 -1.28598699E+00 -1.99569865E+00 -1.73829955E+00 -4.94033304E+00  9.71171328E-01
  1.74704791E+00 -4.94077235E+00  9.71895363E-01 -1.74586787E+00
Int Atom Types                             I   N=          13
           0           0           0           0           0           0
           0           0           0           0           0           0
           0
Force Field                                I                0
MM charges                                 R   N=          13
  0.00000000E+00  0.00000000E+00  0.00000000E+00  0.00000000E+00  0.00000000E+00
  0.00000000E+00  0.00000000E+00  0.00000000E+00  0.00000000E+00  0.00000000E+00
  0.00000000E+00  0.00000000E+00  0.00000000E+00
Integer atomic weights                     I   N=          13
          12          12          12          12           1           1
           1           1           1           1           1           1
           1
Real atomic weights                        R   N=          13
  1.20000000E+01  1.20000000E+01  1.20000000E+01  1.20000000E+01  1.00782504E+00
  1.00782504E+00  1.00782504E+00  1.00782504E+00  1.00782504E+00  1.00782504E+00
  1.00782504E+00  1.00782504E+00  1.00782504E+00
Atom residue info                          I   N=          13
           0           0           0           0           0           0
           0           0           0           0           0           0
           0
Atom fragment info                         I   N=          13
           0           0           0           0           0           0
           0           0           0           0           0           0
           0
Atom residue num                           I   N=          13
           0           0           0           0           0           0
           0           0           0           0           0           0
           0
Nuclear spins                              I   N=          13
           0           0           0           0           1           1
           1           1           1           1           1           1
           1
Nuclear ZEff                               R   N=          13
 -3.60000000E+00 -3.60000000E+00 -3.60000000E+00 -3.60000000E+00 -1.00000000E+00
 -1.00000000E+00 -1.00000000E+00 -1.00000000E+00 -1.00000000E+00 -1.00000000E+00
 -1.00000000E+00 -1.00000000E+00 -1.00000000E+00
Nuclear QMom                               R   N=          13
  0.00000000E+00  0.00000000E+00  0.00000000E+00  0.00000000E+00  0.00000000E+00
  0.00000000E+00  0.00000000E+00  0.00000000E+00  0.00000000E+00  0.00000000E+00
  0.00000000E+00  0.00000000E+00  0.00000000E+00
Nuclear GFac                               R   N=          13
  0.00000000E+00  0.00000000E+00  0.00000000E+00  0.00000000E+00  2.79284600E+00
  2.79284600E+00  2.79284600E+00  2.79284600E+00  2.79284600E+00  2.79284600E+00
  2.79284600E+00  2.79284600E+00  2.79284600E+00
MicOpt                                     I   N=          13
          -1          -1          -1          -1          -1          -1
          -1          -1          -1          -1          -1          -1
          -1
Constraint Structure                       R   N=          39
  3.82519229E+00 -4.83707821E-01  2.59896419E-04  1.66976804E+00  1.35054509E+00
 -2.35644761E-04 -1.97045499E+00 -1.14253081E+00 -3.86099063E-04 -4.08995602E+00
  3.04804174E-01  3.48849120E-04  5.66946826E+00  4.89683196E-01 -7.24574587E-04
  3.79800526E+00 -1.70524962E+00 -1.67463994E+00  3.79874011E+00 -1.70343158E+00
  1.67647937E+00  1.28914317E+00  2.39687808E+00  1.72632847E+00  1.28974885E+00
  2.39681886E+00 -1.72696440E+00 -1.28530919E+00 -1.99673077E+00  1.73671858E+00
 -1.28598699E+00 -1.99569865E+00 -1.73829955E+00 -4.94033304E+00  9.71171328E-01
  1.74704791E+00 -4.94077235E+00  9.71895363E-01 -1.74586787E+00
ONIOM Charges                              I   N=          16
           0           0           0           0           0           0
           0           0           0           0           0           0
           0           0           0           0
ONIOM Multiplicities                       I   N=          16
           2           0           0           0           0           0
           0           0           0           0           0           0
           0           0           0           0
Atom Layers                                I   N=          13
           1           1           1           1           1           1
           1           1           1           1           1           1
           1
Atom Modifiers                             I   N=          13
           0           0           0           0           0           0
           0           0           0           0           0           0
           0
Int Atom Modified Types                    I   N=          13
           0           0           0           0           0           0
           0           0           0           0           0           0
           0
Link Atoms                                 I   N=          13
           0           0           0           0           0           0
           0           0           0           0           0           0
           0
Atom Modified MM Charges                   R   N=          13
  0.00000000E+00  0.00000000E+00  0.00000000E+00  0.00000000E+00  0.00000000E+00
  0.00000000E+00  0.00000000E+00  0.00000000E+00  0.00000000E+00  0.00000000E+00
  0.00000000E+00  0.00000000E+00  0.00000000E+00
Link Distances                             R   N=          52
  0.00000000E+00  0.00000000E+00  0.00000000E+00  0.00000000E+00  0.00000000E+00
  0.00000000E+00  0.00000000E+00  0.00000000E+00  0.00000000E+00  0.00000000E+00
  0.00000000E+00  0.00000000E+00  0.00000000E+00  0.00000000E+00  0.00000000E+00
  0.00000000E+00  0.00000000E+00  0.00000000E+00  0.00000000E+00  0.00000000E+00
  0.00000000E+00  0.00000000E+00  0.00000000E+00  0.00000000E+00  0.00000000E+00
  0.00000000E+00  0.00000000E+00  0.00000000E+00  0.00000000E+00  0.00000000E+00
  0.00000000E+00  0.00000000E+00  0.00000000E+00  0.00000000E+00  0.00000000E+00
  0.00000000E+00  0.00000000E+00  0.00000000E+00  0.00000000E+00  0.00000000E+00
  0.00000000E+00  0.00000000E+00  0.00000000E+00  0.00000000E+00  0.00000000E+00
  0.00000000E+00  0.00000000E+00  0.00000000E+00  0.00000000E+00  0.00000000E+00
  0.00000000E+00  0.00000000E+00
MxBond                                     I                4
NBond                                      I   N=          13
           4           3           3           3           1           1
           1           1           1           1           1           1
           1
IBond                                      I   N=          52
           2           5           6           7           1           8
           9           0           4          10          11           0
           3          12          13           0           1           0
           0           0           1           0           0           0
           1           0           0           0           2           0
           0           0           2           0           0           0
           3           0           0           0           3           0
           0           0           4           0           0           0
           4           0           0           0
RBond                                      R   N=          52
  1.00000000E+00  1.00000000E+00  1.00000000E+00  1.00000000E+00  1.00000000E+00
  1.00000000E+00  1.00000000E+00  0.00000000E+00  2.00000000E+00  1.00000000E+00
  1.00000000E+00  0.00000000E+00  2.00000000E+00  1.00000000E+00  1.00000000E+00
  0.00000000E+00  1.00000000E+00  0.00000000E+00  0.00000000E+00  0.00000000E+00
  1.00000000E+00  0.00000000E+00  0.00000000E+00  0.00000000E+00  1.00000000E+00
  0.00000000E+00  0.00000000E+00  0.00000000E+00  1.00000000E+00  0.00000000E+00
  0.00000000E+00  0.00000000E+00  1.00000000E+00  0.00000000E+00  0.00000000E+00
  0.00000000E+00  1.00000000E+00  0.00000000E+00  0.00000000E+00  0.00000000E+00
  1.00000000E+00  0.00000000E+00  0.00000000E+00  0.00000000E+00  1.00000000E+00
  0.00000000E+00  0.00000000E+00  0.00000000E+00  1.00000000E+00  0.00000000E+00
  0.00000000E+00  0.00000000E+00
Shell types                                I   N=          34
           0          -1          -1           2           0          -1
          -1           2           0          -1          -1           2
           0          -1          -1           2           0           0
           0           0           0           0           0           0
           0           0           0           0           0           0
           0           0           0           0
Number of primitives per shell             I   N=          34
           6           3           1           1           6           3
           1           1           6           3           1           1
           6           3           1           1           3           1
           3           1           3           1           3           1
           3           1           3           1           3           1
           3           1           3           1
Shell to atom map                          I   N=          34
           1           1           1           1           2           2
           2           2           3           3           3           3
           4           4           4           4           5           5
           6           6           7           7           8           8
           9           9          10          10          11          11
          12          12          13          13
Primitive exponents                        R   N=          80
  3.04752488E+03  4.57369518E+02  1.03948685E+02  2.92101553E+01  9.28666296E+00
  3.16392696E+00  7.86827235E+00  1.88128854E+00  5.44249258E-01  1.68714478E-01
  8.00000000E-01  3.04752488E+03  4.57369518E+02  1.03948685E+02  2.92101553E+01
  9.28666296E+00  3.16392696E+00  7.86827235E+00  1.88128854E+00  5.44249258E-01
  1.68714478E-01  8.00000000E-01  3.04752488E+03  4.57369518E+02  1.03948685E+02
  2.92101553E+01  9.28666296E+00  3.16392696E+00  7.86827235E+00  1.88128854E+00
  5.44249258E-01  1.68714478E-01  8.00000000E-01  3.04752488E+03  4.57369518E+02
  1.03948685E+02  2.92101553E+01  9.28666296E+00  3.16392696E+00  7.86827235E+00
  1.88128854E+00  5.44249258E-01  1.68714478E-01  8.00000000E-01  1.87311370E+01
  2.82539436E+00  6.40121692E-01  1.61277759E-01  1.87311370E+01  2.82539436E+00
  6.40121692E-01  1.61277759E-01  1.87311370E+01  2.82539436E+00  6.40121692E-01
  1.61277759E-01  1.87311370E+01  2.82539436E+00  6.40121692E-01  1.61277759E-01
  1.87311370E+01  2.82539436E+00  6.40121692E-01  1.61277759E-01  1.87311370E+01
  2.82539436E+00  6.40121692E-01  1.61277759E-01  1.87311370E+01  2.82539436E+00
  6.40121692E-01  1.61277759E-01  1.87311370E+01  2.82539436E+00  6.40121692E-01
  1.61277759E-01  1.87311370E+01  2.82539436E+00  6.40121692E-01  1.61277759E-01
Contraction coefficients                   R   N=          80
  1.83473713E-03  1.40373228E-02  6.88426223E-02  2.32184443E-01  4.67941348E-01
  3.62311985E-01 -1.19332420E-01 -1.60854152E-01  1.14345644E+00  1.00000000E+00
  1.00000000E+00  1.83473713E-03  1.40373228E-02  6.88426223E-02  2.32184443E-01
  4.67941348E-01  3.62311985E-01 -1.19332420E-01 -1.60854152E-01  1.14345644E+00
  1.00000000E+00  1.00000000E+00  1.83473713E-03  1.40373228E-02  6.88426223E-02
  2.32184443E-01  4.67941348E-01  3.62311985E-01 -1.19332420E-01 -1.60854152E-01
  1.14345644E+00  1.00000000E+00  1.00000000E+00  1.83473713E-03  1.40373228E-02
  6.88426223E-02  2.32184443E-01  4.67941348E-01  3.62311985E-01 -1.19332420E-01
 -1.60854152E-01  1.14345644E+00  1.00000000E+00  1.00000000E+00  3.34946043E-02
  2.34726953E-01  8.13757326E-01  1.00000000E+00  3.34946043E-02  2.34726953E-01
  8.13757326E-01  1.00000000E+00  3.34946043E-02  2.34726953E-01  8.13757326E-01
  1.00000000E+00  3.34946043E-02  2.34726953E-01  8.13757326E-01  1.00000000E+00
  3.34946043E-02  2.34726953E-01  8.13757326E-01  1.00000000E+00  3.34946043E-02
  2.34726953E-01  8.13757326E-01  1.00000000E+00  3.34946043E-02  2.34726953E-01
  8.13757326E-01  1.00000000E+00  3.34946043E-02  2.34726953E-01  8.13757326E-01
  1.00000000E+00  3.34946043E-02  2.34726953E-01  8.13757326E-01  1.00000000E+00
P(S=P) Contraction coefficients            R   N=          80
  0.00000000E+00  0.00000000E+00  0.00000000E+00  0.00000000E+00  0.00000000E+00
  0.00000000E+00  6.89990666E-02  3.16423961E-01  7.44308291E-01  1.00000000E+00
  0.00000000E+00  0.00000000E+00  0.00000000E+00  0.00000000E+00  0.00000000E+00
  0.00000000E+00  0.00000000E+00  6.89990666E-02  3.16423961E-01  7.44308291E-01
  1.00000000E+00  0.00000000E+00  0.00000000E+00  0.00000000E+00  0.00000000E+00
  0.00000000E+00  0.00000000E+00  0.00000000E+00  6.89990666E-02  3.16423961E-01
  7.44308291E-01  1.00000000E+00  0.00000000E+00  0.00000000E+00  0.00000000E+00
  0.00000000E+00  0.00000000E+00  0.00000000E+00  0.00000000E+00  6.89990666E-02
  3.16423961E-01  7.44308291E-01  1.00000000E+00  0.00000000E+00  0.00000000E+00
  0.00000000E+00  0.00000000E+00  0.00000000E+00  0.00000000E+00  0.00000000E+00
  0.00000000E+00  0.00000000E+00  0.00000000E+00  0.00000000E+00  0.00000000E+00
  0.00000000E+00  0.00000000E+00  0.00000000E+00  0.00000000E+00  0.00000000E+00
  0.00000000E+00  0.00000000E+00  0.00000000E+00  0.00000000E+00  0.00000000E+00
  0.00000000E+00  0.00000000E+00  0.00000000E+00  0.00000000E+00  0.00000000E+00
  0.00000000E+00  0.00000000E+00  0.00000000E+00  0.00000000E+00  0.00000000E+00
  0.00000000E+00  0.00000000E+00  0.00000000E+00  0.00000000E+00  0.00000000E+00
Coordinates of each shell                  R   N=         102
  3.82519229E+00 -4.83707821E-01  2.59896419E-04  3.82519229E+00 -4.83707821E-01
  2.59896419E-04  3.82519229E+00 -4.83707821E-01  2.59896419E-04  3.82519229E+00
 -4.83707821E-01  2.59896419E-04  1.66976804E+00  1.35054509E+00 -2.35644761E-04
  1.66976804E+00  1.35054509E+00 -2.35644761E-04  1.66976804E+00  1.35054509E+00
 -2.35644761E-04  1.66976804E+00  1.35054509E+00 -2.35644761E-04 -1.97045499E+00
 -1.14253081E+00 -3.86099063E-04 -1.97045499E+00 -1.14253081E+00 -3.86099063E-04
 -1.97045499E+00 -1.14253081E+00 -3.86099063E-04 -1.97045499E+00 -1.14253081E+00
 -3.86099063E-04 -4.08995602E+00  3.04804174E-01  3.48849120E-04 -4.08995602E+00
  3.04804174E-01  3.48849120E-04 -4.08995602E+00  3.04804174E-01  3.48849120E-04
 -4.08995602E+00  3.04804174E-01  3.48849120E-04  5.66946826E+00  4.89683196E-01
 -7.24574587E-04  5.66946826E+00  4.89683196E-01 -7.24574587E-04  3.79800526E+00
 -1.70524962E+00 -1.67463994E+00  3.79800526E+00 -1.70524962E+00 -1.67463994E+00
  3.79874011E+00 -1.70343158E+00  1.67647937E+00  3.79874011E+00 -1.70343158E+00
  1.67647937E+00  1.28914317E+00  2.39687808E+00  1.72632847E+00  1.28914317E+00
  2.39687808E+00  1.72632847E+00  1.28974885E+00  2.39681886E+00 -1.72696440E+00
  1.28974885E+00  2.39681886E+00 -1.72696440E+00 -1.28530919E+00 -1.99673077E+00
  1.73671858E+00 -1.28530919E+00 -1.99673077E+00  1.73671858E+00 -1.28598699E+00
 -1.99569865E+00 -1.73829955E+00 -1.28598699E+00 -1.99569865E+00 -1.73829955E+00
 -4.94033304E+00  9.71171328E-01  1.74704791E+00 -4.94033304E+00  9.71171328E-01
  1.74704791E+00 -4.94077235E+00  9.71895363E-01 -1.74586787E+00 -4.94077235E+00
  9.71895363E-01 -1.74586787E+00
Alpha Orbital Energies                     R   N=          78
 -1.01866264E+01 -1.01829467E+01 -1.01791799E+01 -1.01745860E+01 -7.58575255E-01
 -7.38723197E-01 -6.03799058E-01 -5.72562362E-01 -4.61064753E-01 -4.37728775E-01
 -4.18868864E-01 -3.96855919E-01 -3.80061868E-01 -3.51801448E-01 -3.46578447E-01
 -2.80855866E-01 -1.71074719E-01  4.27085202E-02  9.50249325E-02  1.32312788E-01
  1.33445874E-01  1.56017464E-01  1.65365591E-01  1.68746276E-01  1.84498860E-01
  2.04704833E-01  2.57003168E-01  2.58608281E-01  3.31419738E-01  4.50154842E-01
  5.16178250E-01  5.40831778E-01  5.68856406E-01  5.73054114E-01  6.00235779E-01
  6.05820324E-01  6.49691147E-01  6.76706055E-01  7.16708446E-01  7.64348987E-01
  8.04222233E-01  8.40643507E-01  8.69210313E-01  8.77511767E-01  8.95736464E-01
  9.24635962E-01  9.42718000E-01  9.54398980E-01  9.61783297E-01  9.77742371E-01
  1.08520196E+00  1.20018477E+00  1.23371448E+00  1.42062344E+00  1.49117498E+00
  1.60133770E+00  1.61991860E+00  1.64111447E+00  1.80399797E+00  1.89756905E+00
  1.90215421E+00  1.92844765E+00  1.98136935E+00  2.04079868E+00  2.09023809E+00
  2.19169871E+00  2.21914309E+00  2.26723884E+00  2.32844516E+00  2.38605170E+00
  2.42561653E+00  2.59843355E+00  2.68465496E+00  2.71175042E+00  4.12505083E+00
  4.17632184E+00  4.33479422E+00  4.37608320E+00
Beta Orbital Energies                      R   N=          78
 -1.01857159E+01 -1.01797461E+01 -1.01744882E+01 -1.01686739E+01 -7.48625453E-01
 -7.29821730E-01 -5.86201952E-01 -5.66195670E-01 -4.58599088E-01 -4.33315307E-01
 -4.11300713E-01 -3.90644296E-01 -3.72999982E-01 -3.48888449E-01 -3.44030763E-01
 -2.57772624E-01 -4.47026302E-02  6.53434808E-02  9.68430345E-02  1.33876257E-01
  1.37143471E-01  1.64991469E-01  1.67782092E-01  1.72789732E-01  1.86940719E-01
  2.09610560E-01  2.59824091E-01  2.65019853E-01  3.33842397E-01  4.54703056E-01
  5.23990689E-01  5.42637636E-01  5.74190509E-01  5.84833077E-01  6.09828699E-01
  6.34293528E-01  6.56369239E-01  6.86745837E-01  7.22315046E-01  7.73808452E-01
  8.19335951E-01  8.40527766E-01  8.72721095E-01  8.81653851E-01  8.99729086E-01
  9.26716320E-01  9.47854005E-01  9.57177384E-01  9.72976004E-01  9.80491955E-01
  1.09883499E+00  1.20273842E+00  1.23614757E+00  1.42967068E+00  1.50972021E+00
  1.61660905E+00  1.62868193E+00  1.66291569E+00  1.81733179E+00  1.91121838E+00
  1.91813883E+00  1.95605160E+00  1.99598693E+00  2.04274547E+00  2.09376238E+00
  2.22569674E+00  2.22890898E+00  2.27899729E+00  2.33921434E+00  2.39441025E+00
  2.43287024E+00  2.60960431E+00  2.68633977E+00  2.71530474E+00  4.13673273E+00
  4.18727666E+00  4.33403851E+00  4.39170917E+00
Alpha MO coefficients                      R   N=        6084
  1.74744291E-02  5.80903567E-04  1.60030821E-04 -1.70884362E-04  3.29297533E-08
  4.06761288E-03 -1.76968168E-03  1.31533743E-03 -2.41734099E-07 -4.21867139E-04
 -4.46590709E-04 -2.78771932E-04  1.97330300E-04 -5.58261429E-08  5.51377655E-08
  9.92600556E-01  5.06987715E-02 -3.92241691E-05 -1.37886617E-04  1.57926491E-08
 -1.55501859E-02 -3.67534784E-04  9.14190316E-04 -5.75367787E-07 -9.46086715E-03
 -9.49272768E-03 -9.50236543E-03  1.38333236E-04  2.81436989E-08 -1.06469671E-09
 -3.26793620E-04 -6.63572172E-04 -7.21269142E-05 -6.67885431E-05 -4.21932418E-08
  2.95288462E-03  1.02478055E-03  9.45103433E-04  4.51712513E-07 -2.62145392E-05
 -1.33710461E-04 -2.07855720E-04  1.31477646E-04  1.31908342E-08  2.45600429E-09
 -2.63483211E-04  1.57045715E-05 -3.71148286E-05 -1.78108430E-05  2.90489026E-08
 -4.53113072E-04 -5.45221615E-04 -5.84121260E-06 -1.85751153E-07 -7.36127779E-05
  4.07513463E-05 -5.52565893E-05 -2.36770035E-05 -7.66750212E-09  2.71338340E-08
 -1.74167320E-04  2.38727840E-04 -1.56650854E-04  1.11393999E-04 -1.56697201E-04
  1.11400821E-04 -1.07798144E-04  2.61421285E-03 -1.07933320E-04  2.61385376E-03
 -2.01781913E-04 -1.94769221E-04 -2.01782047E-04 -1.94295463E-04  4.49307487E-05
 -1.46770351E-04  4.48659298E-05 -1.46955809E-04 -4.05168671E-04 -1.83397794E-05
  3.81268767E-05  9.63056431E-06 -4.19827179E-08 -1.49193558E-04  4.18725197E-04
 -7.90437070E-05  2.53278074E-07 -6.25729055E-05  4.39410995E-05 -5.11756141E-05
  6.64780178E-06  4.22680717E-09 -3.32125545E-08  7.22171441E-05 -6.84983517E-04
  9.79240852E-05  2.47203621E-05 -3.36658748E-08  3.09008877E-03 -1.21830578E-03
 -6.81625363E-04  1.88977194E-07 -4.55700941E-05 -1.63366928E-04 -2.46610114E-04
  1.69800054E-04 -2.71859491E-08  1.88397498E-08  9.92028412E-01  4.92139165E-02
  1.82301925E-04  1.57002327E-04  9.36983376E-09 -1.64315439E-02  5.92351748E-05
 -1.20544350E-03 -3.61219452E-07 -8.96518822E-03 -9.07487947E-03 -8.88118054E-03
 -4.13946619E-04 -7.41016096E-08 -2.20603759E-08  4.30409056E-02  1.61865784E-03
 -3.22772119E-04  2.61041217E-04  1.17822947E-07  4.77937976E-03  2.13452837E-03
 -1.18608899E-03 -6.04255001E-07 -6.70815049E-04 -6.73426120E-04 -5.68414828E-04
  1.47896822E-04  6.73976696E-08 -5.90857441E-08 -4.95497323E-05  2.16792255E-05
  6.31428406E-05 -2.23458096E-04  6.32220582E-05 -2.24019643E-04 -1.93737514E-04
 -3.38393410E-04 -1.93619425E-04 -3.38233746E-04 -1.37871496E-04  2.65743467E-03
 -1.37778212E-04  2.65720255E-03 -1.37975323E-04  1.70221560E-04 -1.37962748E-04
  1.70241031E-04  9.92770574E-01  4.98242941E-02 -1.93337630E-05 -6.92436607E-07
 -2.13503242E-08 -1.70348923E-02  7.17647512E-04 -4.90302607E-04  1.76357028E-07
 -9.12792983E-03 -9.11018638E-03 -9.08678488E-03  2.78914377E-05 -9.66217421E-09
 -6.69498632E-09 -1.77233973E-02 -1.12854535E-03 -1.34147395E-04  1.49234548E-04
 -3.17740934E-08  4.62187309E-03  1.61796184E-03 -1.39311193E-03  4.26223444E-07
 -1.61034938E-04 -1.00847499E-04  8.35141803E-05  1.44482431E-04 -6.71296755E-08
  4.03405799E-08  4.10557984E-04  9.09574097E-05 -8.77468315E-05  1.91622744E-05
  7.43458932E-08 -6.54011601E-04  6.67383816E-04 -5.67524193E-04 -7.49851366E-07
 -1.00203430E-04 -5.40337582E-05  2.06668582E-05  1.81767493E-05  4.44696023E-08
 -2.98951233E-08 -1.62986355E-04 -1.12171169E-04  2.02534622E-05 -2.52156868E-05
  2.97243426E-08  1.12388964E-03  4.99136698E-04 -2.60001653E-04 -1.75992662E-07
  1.69084777E-05 -3.02111563E-05 -3.72009626E-05 -4.12337807E-05  1.77833178E-09
 -7.18800961E-09 -4.43694247E-05  2.63191436E-03 -3.97493646E-05  2.74396347E-03
 -3.97653871E-05  2.74391809E-03 -1.53560188E-04  3.40767529E-05 -1.53569262E-04
  3.42175086E-05 -2.47880895E-05 -2.13411671E-04 -2.46241607E-05 -2.14636806E-04
 -3.34555543E-05  2.60265933E-05 -3.34944017E-05  2.59887735E-05  1.39234944E-04
 -1.23292508E-04 -1.57758765E-05  1.73968873E-05 -2.25276888E-09  9.82140363E-04
 -3.75759690E-04  3.16999575E-04 -1.37228617E-08  1.33454831E-06 -4.24696594E-06
 -4.54324058E-05 -3.94907467E-05  8.29945996E-09 -6.55501127E-09  2.48271318E-04
  8.11457646E-05  1.52445302E-04 -1.16798330E-05  3.34716685E-08 -5.60159398E-04
 -7.02919721E-04  4.66080436E-04 -3.22833820E-07 -9.48317181E-05 -5.83405871E-05
  1.47145318E-05  3.83629577E-05 -3.75121312E-08  2.21388646E-08 -4.34736390E-02
 -2.55882961E-03  3.41422372E-04 -1.94799792E-04 -1.16764325E-07  4.73177216E-03
 -1.63514759E-03  9.88775370E-04  5.90087250E-07  1.57787722E-04  2.29558287E-04
  2.57779877E-04  1.10678658E-04  4.76066770E-08 -2.10483636E-08  9.91687823E-01
  4.98934185E-02  1.20583455E-04  6.54174479E-05 -3.36321402E-08 -1.31597942E-02
 -9.30826930E-04  4.28230836E-04  4.38003502E-07 -9.58376013E-03 -9.66871566E-03
 -9.71895485E-03 -1.28164775E-04 -9.74826494E-08  6.50917054E-08 -3.71866207E-05
  2.40872130E-06 -4.25687861E-05  1.37684344E-05 -4.25203361E-05  1.35480083E-05
 -6.75339648E-05 -3.28371726E-05 -6.74126616E-05 -3.33860182E-05 -6.09964991E-05
 -6.70167618E-05 -6.09797033E-05 -6.69850743E-05 -3.02596124E-04  2.21157631E-03
 -3.02524209E-04  2.21171169E-03 -1.15789460E-01  2.22502109E-01 -3.44164206E-02
  2.79829527E-02 -7.75081683E-06  1.78033590E-01  6.06935929E-04  1.91958750E-03
 -2.34131889E-06  1.31422265E-03  7.09059027E-04 -1.05210477E-03 -2.57502557E-03
  3.69956228E-07 -6.00317548E-07 -1.12419478E-01  2.17937720E-01  3.76866405E-02
 -3.15316501E-02  1.08334797E-05  1.87739644E-01  7.19007839E-03 -6.69338209E-03
  4.62159158E-06  1.28410899E-04 -7.74013909E-04 -1.88582789E-03 -4.75712270E-03
  4.65985046E-07 -1.39794433E-06 -1.06590858E-01  2.04473293E-01 -3.99494080E-02
  2.83780192E-02  1.40339449E-05  1.55337230E-01  4.92696979E-03  1.40196304E-03
 -1.35602426E-06 -9.42001671E-04 -5.38289387E-03  2.54594525E-04 -8.54066692E-03
 -1.39377220E-06 -5.59149176E-07 -9.72933530E-02  1.88739414E-01  5.35021527E-02
 -3.23752480E-02 -2.03259269E-05  1.46161694E-01  4.12649762E-03 -2.95377067E-03
 -1.44205677E-06  6.22469820E-04 -3.81853022E-03 -9.25438552E-04 -6.75100942E-03
 -2.31719529E-06  6.53954434E-07  6.63235359E-02  1.24911244E-02  6.68167125E-02
  1.51446521E-02  6.68152769E-02  1.51468731E-02  6.23286369E-02  1.22983745E-02
  6.23270371E-02  1.23007635E-02  6.08842059E-02  1.42335507E-02  6.08820234E-02
  1.42330121E-02  4.96428958E-02  1.00116690E-02  4.96456848E-02  1.00131803E-02
  1.11550831E-01 -2.14024822E-01  2.00472860E-02 -2.37356291E-02  5.61127409E-06
 -1.83524343E-01 -1.47215172E-03 -1.02843517E-03  1.01101764E-06  2.68905774E-05
 -3.98555420E-04  7.61822794E-04  1.67097346E-03  8.32435161E-08  4.35466795E-07
  8.41234150E-02 -1.63635474E-01 -6.00892249E-02  2.29339756E-02 -1.06557834E-05
 -1.41716766E-01 -1.32154015E-02  1.16432210E-03 -2.52409669E-06  4.66432719E-04
  3.11635833E-04  1.41496914E-03  6.06924534E-03 -8.18534545E-07  1.39849711E-06
 -1.14638096E-01  2.21621572E-01 -7.92236662E-02  3.45571109E-02  1.80324672E-05
  1.70899471E-01 -7.32286343E-03 -3.96055705E-04 -7.36996380E-07 -1.78640726E-03
 -5.61553685E-03 -6.79373613E-05 -1.15454034E-02 -2.54550960E-06 -7.79173894E-08
 -1.27670884E-01  2.48603071E-01  5.76300597E-02 -3.92493507E-02 -2.44551973E-05
  1.95278861E-01  2.59536453E-03 -1.99241690E-03 -2.53399435E-06 -6.55908459E-04
 -5.21667618E-03 -5.51641061E-04 -8.45513922E-03 -2.60730835E-06  5.60077493E-07
 -6.87774971E-02 -1.51050179E-02 -6.57553566E-02 -1.37254408E-02 -6.57578288E-02
 -1.37268848E-02 -4.47132472E-02 -6.77790277E-03 -4.47154535E-02 -6.77902063E-03
  5.90423539E-02  1.03254075E-02  5.90467542E-02  1.03268306E-02  6.91429320E-02