 vasp.5.3.5 31Mar14 (build Jun 02 2014 14:54:32) complex

 executed on             LinuxIFC date 2015.08.19  17:58:53
 running on   24 total cores
 distrk:  each k-point on   24 cores,    1 groups
 distr:  one band on NCORES_PER_BAND=   1 cores,   24 groups


--------------------------------------------------------------------------------------------------------


 INCAR:
 POTCAR:   PAW_GGA C 05Jan2001
 POTCAR:   PAW_GGA H 07Jul1998

 -----------------------------------------------------------------------------
|                                                                             |
|           W    W    AA    RRRRR   N    N  II  N    N   GGGG   !!!           |
|           W    W   A  A   R    R  NN   N  II  NN   N  G    G  !!!           |
|           W    W  A    A  R    R  N N  N  II  N N  N  G       !!!           |
|           W WW W  AAAAAA  RRRRR   N  N N  II  N  N N  G  GGG   !            |
|           WW  WW  A    A  R   R   N   NN  II  N   NN  G    G                |
|           W    W  A    A  R    R  N    N  II  N    N   GGGG   !!!           |
|                                                                             |
|      For optimal performance we recommend to set                            |
|        NCORE= 4 - approx SQRT( number of cores)                             |
|      NCORE specifies how many cores store one orbital (NPAR=cpu/NCORE).     |
|      This setting can  greatly improve the performance of VASP for DFT.     |
|      The default, NPAR=number of cores might be grossly inefficient         |
|      on modern multi-core architectures or massively parallel machines.     |
|      Do your own testing !!!!                                               |
|      Unfortunately you need to use the default for GW and RPA calculations. |
|      (for HF NCORE is supported but not extensively tested yet)             |
|                                                                             |
 -----------------------------------------------------------------------------

 POTCAR:   PAW_GGA C 05Jan2001
   VRHFIN =C: s2p2
   LEXCH  = 91
   EATOM  =   147.4688 eV,   10.8386 Ry

   TITEL  = PAW_GGA C 05Jan2001
   LULTRA =        F    use ultrasoft PP ?
   IUNSCR =        0    unscreen: 0-lin 1-nonlin 2-no
   RPACOR =     .000    partial core radius
   POMASS =   12.011; ZVAL   =    4.000    mass and valenz
   RCORE  =    1.500    outmost cutoff radius
   RWIGS  =    1.630; RWIGS  =     .863    wigner-seitz radius (au A)
   ENMAX  =  400.000; ENMIN  =  300.000 eV
   ICORE  =        2    local potential
   LCOR   =        T    correct aug charges
   LPAW   =        T    paw PP
   EAUG   =  644.873
   DEXC   =     .000
   RMAX   =    2.266    core radius for proj-oper
   RAUG   =    1.300    factor for augmentation sphere
   RDEP   =    1.501    radius for radial grids
   RDEPT  =    1.300    core radius for aug-charge
   QCUT   =   -5.516; QGAM   =   11.033    optimization parameters

   Description
     l     E      TYP  RCUT    TYP  RCUT
     0   .000     23  1.200
     0   .000     23  1.200
     1   .000     23  1.500
     1  2.500     23  1.500
     2   .000      7  1.500
  local pseudopotential read in
  atomic valenz-charges read in
  non local Contribution for L=           0  read in
    real space projection operators read in
  non local Contribution for L=           0  read in
    real space projection operators read in
  non local Contribution for L=           1  read in
    real space projection operators read in
  non local Contribution for L=           1  read in
    real space projection operators read in
    PAW grid and wavefunctions read in

   number of l-projection  operators is LMAX  =           4
   number of lm-projection operators is LMMAX =           8

 POTCAR:   PAW_GGA H 07Jul1998
   VRHFIN =H: ultrasoft test
   LEXCH  = 91
   EATOM  =    12.5313 eV,     .9210 Ry

   TITEL  = PAW_GGA H 07Jul1998
   LULTRA =        F    use ultrasoft PP ?
   IUNSCR =        0    unscreen: 0-lin 1-nonlin 2-no
   RPACOR =     .000    partial core radius
   POMASS =    1.000; ZVAL   =    1.000    mass and valenz
   RCORE  =    1.100    outmost cutoff radius
   RWIGS  =     .700; RWIGS  =     .370    wigner-seitz radius (au A)
   ENMAX  =  250.000; ENMIN  =  200.000 eV
   RCLOC  =     .701    cutoff for local pot
   LCOR   =        T    correct aug charges
   LPAW   =        T    paw PP
   EAUG   =  400.000
   RMAX   =    2.174    core radius for proj-oper
   RAUG   =    1.200    factor for augmentation sphere
   RDEP   =    1.112    core radius for depl-charge
   QCUT   =   -5.749; QGAM   =   11.498    optimization parameters

   Description
     l     E      TYP  RCUT    TYP  RCUT
     0   .000     23  1.100
     0   .500     23  1.100
     1  -.300     23  1.100
  local pseudopotential read in
  atomic valenz-charges read in
  non local Contribution for L=           0  read in
    real space projection operators read in
  non local Contribution for L=           0  read in
    real space projection operators read in
  non local Contribution for L=           1  read in
    real space projection operators read in
    PAW grid and wavefunctions read in

   number of l-projection  operators is LMAX  =           3
   number of lm-projection operators is LMMAX =           5

 PAW_GGA C 05Jan2001                    :
 energy of atom  1       EATOM= -147.4688
 kinetic energy error for atom=    0.0288 (will be added to EATOM!!)
 PAW_GGA H 07Jul1998                    :
 energy of atom  2       EATOM=  -12.5313
 kinetic energy error for atom=    0.0098 (will be added to EATOM!!)


 POSCAR:  Comment
  positions in direct lattice
  velocities in cartesian coordinates
 exchange correlation table for  LEXCH =        7
   RHO(1)=    0.500       N(1)  =     2000
   RHO(2)=  100.500       N(2)  =     4000



--------------------------------------------------------------------------------------------------------


 ion  position               nearest neighbor table
   1  0.477  0.509  0.537-   3 1.09   2 1.09   4 1.09   5 1.11
   2  0.447  0.570  0.563-   1 1.09
   3  0.447  0.450  0.567-   1 1.09
   4  0.549  0.510  0.546-   1 1.09
   5  0.465  0.507  0.464-   1 1.11

  LATTYP: Found a simple cubic cell.
 ALAT       =    15.0000000000

  Lattice vectors:

 A1 = (  15.0000000000,   0.0000000000,   0.0000000000)
 A2 = (   0.0000000000,  15.0000000000,   0.0000000000)
 A3 = (   0.0000000000,   0.0000000000,  15.0000000000)


Analysis of symmetry for initial positions (statically):
=====================================================================
 Subroutine PRICEL returns:
 Original cell was already a primitive cell.


 Routine SETGRP: Setting up the symmetry group for a
 simple cubic supercell.


 Subroutine GETGRP returns: Found  1 space group operations
 (whereof  1 operations were pure point group operations)
 out of a pool of 48 trial point group operations.


The static configuration has the point symmetry C_1 .


Analysis of symmetry for dynamics (positions and initial velocities):
=====================================================================
 Subroutine PRICEL returns:
 Original cell was already a primitive cell.


 Routine SETGRP: Setting up the symmetry group for a
 simple cubic supercell.


 Subroutine GETGRP returns: Found  1 space group operations
 (whereof  1 operations were pure point group operations)
 out of a pool of 48 trial point group operations.


The dynamic configuration has the point symmetry C_1 .


 KPOINTS: Automatic Mesh

Automatic generation of k-mesh.
Space group operators:
 irot       det(A)        alpha          n_x          n_y          n_z        tau_x        tau_y        tau_z
    1     1.000000     0.000000     1.000000     0.000000     0.000000     0.000000     0.000000     0.000000

 Subroutine IBZKPT returns following result:
 ===========================================

 Found      1 irreducible k-points:

 Following reciprocal coordinates:
            Coordinates               Weight
  0.000000  0.000000  0.000000      1.000000

 Following cartesian coordinates:
            Coordinates               Weight
  0.000000  0.000000  0.000000      1.000000


 Subroutine IBZKPT_HF returns following result:
 ==============================================

 Found      1 k-points in 1st BZ
 the following      1 k-points will be used (e.g. in the exchange kernel)
 Following reciprocal coordinates:   # in IRBZ
  0.000000  0.000000  0.000000       1 t-inv F


--------------------------------------------------------------------------------------------------------




 Dimension of arrays:
   k-points           NKPTS =      1   k-points in BZ     NKDIM =      1   number of bands    NBANDS=     24
   number of dos      NEDOS =    301   number of ions     NIONS =      5
   non local maximal  LDIM  =      4   non local SUM 2l+1 LMDIM =      8
   total plane-waves  NPLWV = 512000
   max r-space proj   IRMAX =      1   max aug-charges    IRDMAX=   1990
   dimension x,y,z NGX =    80 NGY =   80 NGZ =   80
   dimension x,y,z NGXF=   160 NGYF=  160 NGZF=  160
   support grid    NGXF=   160 NGYF=  160 NGZF=  160
   ions per type =               1   4
 NGX,Y,Z   is equivalent  to a cutoff of   8.87,  8.87,  8.87 a.u.
 NGXF,Y,Z  is equivalent  to a cutoff of  17.73, 17.73, 17.73 a.u.


 I would recommend the setting:
   dimension x,y,z NGX =    73 NGY =   73 NGZ =   73
 SYSTEM =  Pd111
 POSCAR =   Comment

 Startparameter for this run:
   NWRITE =      2    write-flag & timer
   PREC   = normal    normal or accurate (medium, high low for compatibility)
   ISTART =      0    job   : 0-new  1-cont  2-samecut
   ICHARG =      2    charge: 1-file 2-atom 10-const
   ISPIN  =      1    spin polarized calculation?
   LNONCOLLINEAR =      F non collinear calculations
   LSORBIT =      F    spin-orbit coupling
   INIWAV =      1    electr: 0-lowe 1-rand  2-diag
   LASPH  =      F    aspherical Exc in radial PAW
   METAGGA=      F    non-selfconsistent MetaGGA calc.

 Electronic Relaxation 1
   ENCUT  =  400.0 eV  29.40 Ry    5.42 a.u.  24.46 24.46 24.46*2*pi/ulx,y,z
   ENINI  =  400.0     initial cutoff
   ENAUG  =  644.9 eV  augmentation charge cutoff
   NELM   =     60;   NELMIN=  2; NELMDL=  0     # of ELM steps
   EDIFF  = 0.1E-05   stopping-criterion for ELM
   LREAL  =      F    real-space projection
   NLSPLINE    = F    spline interpolate recip. space projectors
   LCOMPAT=      F    compatible to vasp.4.4
   GGA_COMPAT  = T    GGA compatible to vasp.4.4-vasp.4.6
   LMAXPAW     = -100 max onsite density
   LMAXMIX     =    2 max onsite mixed and CHGCAR
   VOSKOWN=      1    Vosko Wilk Nusair interpolation
   ROPT   =    0.00000   0.00000
 Ionic relaxation
   EDIFFG = -.1E-01   stopping-criterion for IOM
   NSW    =     97    number of steps for IOM
   NBLOCK =      1;   KBLOCK =      1    inner block; outer block
   IBRION =      5    ionic relax: 0-MD 1-quasi-New 2-CG
   NFREE  =      2    steps in history (QN), initial steepest desc. (CG)
   ISIF   =      0    stress and relaxation
   IWAVPR =     11    prediction:  0-non 1-charg 2-wave 3-comb
   ISYM   =      2    0-nonsym 1-usesym 2-fastsym
   LCORR  =      T    Harris-Foulkes like correction to forces

   POTIM  = 0.0150    time-step for ionic-motion
   TEIN   =    0.0    initial temperature
   TEBEG  =    0.0;   TEEND  =   0.0 temperature during run
   SMASS  =  -3.00    Nose mass-parameter (am)
   estimated Nose-frequenzy (Omega)   =  0.10E-29 period in steps =****** mass=  -0.514E-26a.u.
   SCALEE = 1.0000    scale energy and forces
   NPACO  =    256;   APACO  = 16.0  distance and # of slots for P.C.
   PSTRESS=    0.0 pullay stress

  Mass of Ions in am
   POMASS =  12.01  1.00
  Ionic Valenz
   ZVAL   =   4.00  1.00
  Atomic Wigner-Seitz radii
   RWIGS  =  -1.00 -1.00
  virtual crystal weights
   VCA    =   1.00  1.00
   NELECT =       8.0000    total number of electrons
   NUPDOWN=      -1.0000    fix difference up-down

 DOS related values:
   EMIN   =  10.00;   EMAX   =-10.00  energy-range for DOS
   EFERMI =   0.00
   ISMEAR =     1;   SIGMA  =   0.20  broadening in eV -4-tet -1-fermi 0-gaus

 Electronic relaxation 2 (details)
   IALGO  =     48    algorithm
   LDIAG  =      T    sub-space diagonalisation (order eigenvalues)
   LSUBROT=      F    optimize rotation matrix (better conditioning)
   TURBO    =      0    0=normal 1=particle mesh
   IRESTART =      0    0=no restart 2=restart with 2 vectors
   NREBOOT  =      0    no. of reboots
   NMIN     =      0    reboot dimension
   EREF     =   0.00    reference energy to select bands
   IMIX   =      4    mixing-type and parameters
     AMIX     =   0.40;   BMIX     =  1.00
     AMIX_MAG =   1.60;   BMIX_MAG =  1.00
     AMIN     =   0.10
     WC   =   100.;   INIMIX=   1;  MIXPRE=   1;  MAXMIX= -45

 Intra band minimization:
   WEIMIN = 0.0010     energy-eigenvalue tresh-hold
   EBREAK =  0.10E-07  absolut break condition
   DEPER  =   0.30     relativ break condition

   TIME   =   0.40     timestep for ELM

  volume/ion in A,a.u.               =     675.00      4555.12
  Fermi-wavevector in a.u.,A,eV,Ry     =   0.218280  0.412489  0.648264  0.047646
  Thomas-Fermi vector in A             =   0.996232

 Write flags
   LWAVE  =      T    write WAVECAR
   LCHARG =      F    write CHGCAR
   LVTOT  =      F    write LOCPOT, total local potential
   LVHAR  =      F    write LOCPOT, Hartree potential only
   LELF   =      F    write electronic localiz. function (ELF)
   LORBIT =      0    0 simple, 1 ext, 2 COOP (PROOUT)


 Dipole corrections
   LMONO  =      F    monopole corrections only (constant potential shift)
   LDIPOL =      F    correct potential (dipole corrections)
   IDIPOL =      0    1-x, 2-y, 3-z, 4-all directions
   EPSILON=  1.0000000 bulk dielectric constant

 Exchange correlation treatment:
   GGA     =    91    GGA type
   LEXCH   =     7    internal setting for exchange type
   VOSKOWN=      1    Vosko Wilk Nusair interpolation
   LHFCALC =     F    Hartree Fock is set to
   LHFONE  =     F    Hartree Fock one center treatment
   AEXX    =    0.0000 exact exchange contribution

 Linear response parameters
   LEPSILON=     F    determine dielectric tensor
   LRPA    =     F    only Hartree local field effects (RPA)
   LNABLA  =     F    use nabla operator in PAW spheres
   LVEL    =     F    velocity operator in full k-point grid
   LINTERFAST=   F  fast interpolation
   KINTER  =     0    interpolate to denser k-point grid
   CSHIFT  =0.1000    complex shift for real part using Kramers Kronig
   OMEGAMAX=  -1.0    maximum frequency
   DEG_THRESHOLD= 0.2000000E-02 threshold for treating states as degnerate
   RTIME   =    0.100 relaxation time in fs

 Orbital magnetization related:
   ORBITALMAG=     F  switch on orbital magnetization
   LCHIMAG   =     F  perturbation theory with respect to B field
   DQ        =  0.001000  dq finite difference perturbation B field


############################## LOTS OF LINES REMOVED TO REDUCE FILE SIZE ##############################


 SECOND DERIVATIVES (NOT SYMMETRIZED)
 ------------------------------------
               1X          1Y          1Z          2X          2Y          2Z          3X          3Y          3Z          4X          4Y          4Z          5X          5Y          5Z
  1X   -53.624756   -1.129094   24.038869   10.781366   -8.655985  -11.193637   11.613917    8.958533  -11.033288   29.265489   -0.029974    1.351234    1.963983    0.856520   -3.163179
  1Y    -1.932648  -62.519270    2.190523   -3.459334   25.771191   14.022359    4.002110   24.857231  -15.888538    0.763252   14.656042   -0.735508    0.626620   -2.765194    0.411164
  1Z     2.914502    0.530905  -61.355844   -0.338869   12.463922    7.551817   -2.194812  -13.862950    7.765988    2.630328    1.084946   14.025895   -3.011148   -0.216823   32.012144
  2X     9.918886   -8.238930   -3.798981   -9.520543    9.520728    4.985459   -1.482502    1.049041    0.820038    0.717183   -2.398170   -2.009697    0.366976    0.067331    0.003181
  2Y    -6.585551   29.038223   14.216643    8.483244  -26.935918  -11.437338   -0.665760    0.584309    1.469097   -0.965621   -3.369919   -1.702381   -0.266312    0.683304   -2.546022
  2Z    -5.917801   10.431909   -3.319877    8.192289   -9.616358   -0.401886   -4.126120   -1.606353   -1.334942    1.276304    4.838587    0.737394    0.575328   -4.047785    4.319311
  3X     4.678187    4.265032    0.441208   -4.475600   -0.973303   -3.929204   -4.445494   -7.236261    8.544538    2.391614   -2.518287   -3.409464    1.851293    6.462819   -1.647078
  3Y     4.243090   14.767603  -10.107500    0.672046    3.594538   -1.842171   -7.314104  -21.117791   11.114539    1.398689   -0.283303    0.300702    1.000279    3.038954    0.534430
  3Z    -6.126708  -11.323521   -2.408032   -4.389649    1.099255   -1.272970    8.663537   11.046248   -1.528364    1.243745   -5.020600    1.030383    0.609075    4.198617    4.178982
  4X    17.427812    0.412934    2.929995    2.666669   -1.493991    1.268870    2.668782    1.422588    1.252013  -27.850988   -0.353639   -5.561821    5.087725    0.012108    0.110943
  4Y     0.681100    4.330063    0.255320    2.217952    0.055128    4.378597   -2.487132   -0.300439   -4.494845   -0.399589    2.750175   -0.269681   -0.012331   -6.834927    0.130608
  4Z    11.105009   -0.575599    1.998342   -3.708707    0.016819    0.909747   -3.568783    0.357018    1.099692   -5.970557   -0.110141   -4.772966    2.143037    0.311903    0.765185
  5X    -8.681633    0.490793   -0.113436    1.713744   -1.532544    0.544148    1.702339    1.264296    0.559731    5.064033   -0.082380    1.742622    0.201516   -0.140165   -2.733065
  5Y     0.290405   -6.353992    0.426273   -6.825390    2.703610   -4.100220    6.654327    3.000442    4.276857    0.006645   -7.308297    0.318520   -0.125986    7.958238   -0.921431
  5Z     6.229124   -0.150128   31.937456   -3.455424   -2.753392    2.580299   -3.082771    3.504732    2.711584   -0.225336   -0.177526   -5.929920    0.534406   -0.423686  -31.299419


 Eigenvectors and eigenvalues of the dynamical matrix
 ----------------------------------------------------


   1 f  =   98.041621 THz   616.013670 2PiTHz 3270.316345 cm-1   405.467696 meV
             X         Y         Z           dx          dy          dz
      7.158424  7.637090  8.051236    -0.051762    0.239802    0.199118
      6.701693  8.545079  8.442779     0.283826   -0.752074   -0.243790
      6.708779  6.754029  8.501205    -0.095230   -0.045469    0.119369
      8.241850  7.646324  8.195902    -0.093213   -0.007148   -0.055880
      6.981061  7.603310  6.953932    -0.013461    0.032016   -0.395105

   2 f  =   93.744298 THz   589.012795 2PiTHz 3126.973097 cm-1   387.695392 meV
             X         Y         Z           dx          dy          dz
      7.158424  7.637090  8.051236    -0.086611    0.170334   -0.238125
      6.701693  8.545079  8.442779     0.217448   -0.237018   -0.230928
      6.708779  6.754029  8.501205    -0.064301   -0.328462    0.061221
      8.241850  7.646324  8.195902     0.235571    0.020630    0.143598
      6.981061  7.603310  6.953932    -0.020099    0.049909    0.744840

   3 f  =   89.503592 THz   562.367654 2PiTHz 2985.518378 cm-1   370.157236 meV
             X         Y         Z           dx          dy          dz
      7.158424  7.637090  8.051236    -0.167963   -0.135042    0.055206
      6.701693  8.545079  8.442779     0.137509   -0.235933   -0.069345
      6.708779  6.754029  8.501205     0.366626    0.708528   -0.394896
      8.241850  7.646324  8.195902     0.010149   -0.023724    0.095803
      6.981061  7.603310  6.953932    -0.049331   -0.060796    0.250557

   4 f  =   88.220099 THz   554.303231 2PiTHz 2942.705665 cm-1   364.849134 meV
             X         Y         Z           dx          dy          dz
      7.158424  7.637090  8.051236    -0.226849   -0.025179    0.061281
      6.701693  8.545079  8.442779    -0.052252    0.036862   -0.006170
      6.708779  6.754029  8.501205    -0.043280    0.019472   -0.028311
      8.241850  7.646324  8.195902     0.892320    0.007376    0.175020
      6.981061  7.603310  6.953932    -0.162675   -0.003618   -0.289088

   5 f  =   50.708030 THz   318.607950 2PiTHz 1691.437768 cm-1   209.711631 meV
             X         Y         Z           dx          dy          dz
      7.158424  7.637090  8.051236     0.187449    0.078199    0.040362
      6.701693  8.545079  8.442779    -0.610414   -0.282303   -0.004669
      6.708779  6.754029  8.501205    -0.389168    0.234527   -0.051535
      8.241850  7.646324  8.195902     0.172760   -0.149847   -0.429689
      6.981061  7.603310  6.953932     0.112986   -0.012834    0.214063

   6 f  =   39.912917 THz   250.780256 2PiTHz 1331.351577 cm-1   165.066617 meV
             X         Y         Z           dx          dy          dz
      7.158424  7.637090  8.051236    -0.141159   -0.479440    0.190819
      6.701693  8.545079  8.442779     0.284487    0.129859   -0.241288
      6.708779  6.754029  8.501205    -0.377461    0.122043    0.067676
      8.241850  7.646324  8.195902     0.033538    0.442210   -0.291896
      6.981061  7.603310  6.953932     0.150372    0.293731    0.071159

   7 f  =   29.583203 THz   185.876746 2PiTHz  986.789400 cm-1   122.346337 meV
             X         Y         Z           dx          dy          dz
      7.158424  7.637090  8.051236    -0.570454    0.170370    0.490231
      6.701693  8.545079  8.442779    -0.031872    0.148628   -0.015254
      6.708779  6.754029  8.501205     0.145680   -0.285205   -0.236823
      8.241850  7.646324  8.195902    -0.040691   -0.247988   -0.300042
      6.981061  7.603310  6.953932     0.236656   -0.066707    0.098014

   8 f  =   11.123763 THz    69.892662 2PiTHz  371.048769 cm-1    46.004201 meV
             X         Y         Z           dx          dy          dz
      7.158424  7.637090  8.051236    -0.583527   -0.007090   -0.733034
      6.701693  8.545079  8.442779    -0.113974   -0.043851   -0.051247
      6.708779  6.754029  8.501205    -0.099001    0.052968   -0.037120
      8.241850  7.646324  8.195902    -0.132582   -0.004794   -0.140582
      6.981061  7.603310  6.953932     0.097815    0.014281   -0.208439

   9 f  =    9.434533 THz    59.278920 2PiTHz  314.702139 cm-1    39.018106 meV
             X         Y         Z           dx          dy          dz
      7.158424  7.637090  8.051236    -0.129270   -0.171384    0.137795
      6.701693  8.545079  8.442779    -0.554345   -0.149400   -0.317171
      6.708779  6.754029  8.501205     0.258495   -0.148530    0.117583
      8.241850  7.646324  8.195902    -0.096666    0.479508    0.325052
      6.981061  7.603310  6.953932     0.148878   -0.186827    0.002486

  10 f  =    2.324364 THz    14.604411 2PiTHz   77.532441 cm-1     9.612801 meV
             X         Y         Z           dx          dy          dz
      7.158424  7.637090  8.051236    -0.101698    0.325036    0.028752
      6.701693  8.545079  8.442779     0.056227    0.216875   -0.180616
      6.708779  6.754029  8.501205     0.158758    0.250997    0.503286
      8.241850  7.646324  8.195902     0.021153    0.199313   -0.379709
      6.981061  7.603310  6.953932    -0.373027   -0.359622    0.077684

  11 f/i=    1.786029 THz    11.221949 2PiTHz   59.575499 cm-1     7.386423 meV
             X         Y         Z           dx          dy          dz
      7.158424  7.637090  8.051236     0.015200   -0.467234   -0.070605
      6.701693  8.545079  8.442779    -0.039149   -0.306746    0.321320
      6.708779  6.754029  8.501205     0.373054   -0.323988   -0.012958
      8.241850  7.646324  8.195902     0.058316    0.055721   -0.422141
      6.981061  7.603310  6.953932    -0.382845    0.021381    0.039516

  12 f/i=   10.253166 THz    64.422544 2PiTHz  342.008806 cm-1    42.403703 meV
             X         Y         Z           dx          dy          dz
      7.158424  7.637090  8.051236    -0.033019    0.501442    0.019415
      6.701693  8.545079  8.442779    -0.126901    0.014145    0.253558
      6.708779  6.754029  8.501205     0.132692    0.030012   -0.190086
      8.241850  7.646324  8.195902    -0.013796    0.482957   -0.056326
      6.981061  7.603310  6.953932    -0.127659    0.599086    0.006427

  13 f/i=   21.092789 THz   132.529905 2PiTHz  703.579701 cm-1    87.232797 meV
             X         Y         Z           dx          dy          dz
      7.158424  7.637090  8.051236     0.388625    0.117180   -0.235882
      6.701693  8.545079  8.442779     0.147796    0.079546   -0.292683
      6.708779  6.754029  8.501205     0.368733   -0.102060   -0.247976
      8.241850  7.646324  8.195902     0.238522    0.144620   -0.352430
      6.981061  7.603310  6.953932     0.469697   -0.113489   -0.149608

  14 f/i=   30.344289 THz   190.658793 2PiTHz 1012.176513 cm-1   125.493939 meV
             X         Y         Z           dx          dy          dz
      7.158424  7.637090  8.051236     0.097432    0.002253   -0.016868
      6.701693  8.545079  8.442779    -0.101151    0.158960   -0.551090
      6.708779  6.754029  8.501205    -0.147621   -0.157951   -0.496972
      8.241850  7.646324  8.195902    -0.136102   -0.065988   -0.034344
      6.981061  7.603310  6.953932    -0.569454    0.021497   -0.092187

  15 f/i=   76.025279 THz   477.680916 2PiTHz 2535.930261 cm-1   314.415393 meV
             X         Y         Z           dx          dy          dz
      7.158424  7.637090  8.051236    -0.016291    0.105108    0.006157
      6.701693  8.545079  8.442779     0.151010   -0.073264    0.362175
      6.708779  6.754029  8.501205    -0.344964   -0.085523   -0.385570
      8.241850  7.646324  8.195902    -0.021820    0.433711    0.014927
      6.981061  7.603310  6.953932    -0.022179   -0.603939    0.017002

 Finite differences POTIM=  1.500000000000000E-002
  LATTYP: Found a simple cubic cell.
 ALAT       =    15.0000000000

  Lattice vectors:

 A1 = (  15.0000000000,   0.0000000000,   0.0000000000)
 A2 = (   0.0000000000,  15.0000000000,   0.0000000000)
 A3 = (   0.0000000000,   0.0000000000,  15.0000000000)


Analysis of symmetry for initial positions (statically):
=====================================================================
 Subroutine PRICEL returns:
 Original cell was already a primitive cell.


 Routine SETGRP: Setting up the symmetry group for a
 simple cubic supercell.


 Subroutine GETGRP returns: Found  1 space group operations
 (whereof  1 operations were pure point group operations)
 out of a pool of 48 trial point group operations.


The static configuration has the point symmetry C_1 .


Analysis of symmetry for dynamics (positions and initial velocities):
=====================================================================
 Subroutine PRICEL returns:
 Original cell was already a primitive cell.


 Routine SETGRP: Setting up the symmetry group for a
 simple cubic supercell.


 Subroutine GETGRP returns: Found  1 space group operations
 (whereof  1 operations were pure point group operations)
 out of a pool of 48 trial point group operations.


The dynamic configuration has the point symmetry C_1 .

 KPOINTS: Automatic Mesh

Automatic generation of k-mesh.
Space group operators:
 irot       det(A)        alpha          n_x          n_y          n_z        tau_x        tau_y        tau_z
    1     1.000000     0.000000     1.000000     0.000000     0.000000     0.000000     0.000000     0.000000

 Subroutine IBZKPT returns following result:
 ===========================================

 Found      1 irreducible k-points:

 Following reciprocal coordinates:
            Coordinates               Weight
  0.000000  0.000000  0.000000      1.000000

 Following cartesian coordinates:
            Coordinates               Weight
  0.000000  0.000000  0.000000      1.000000

 writing wavefunctions
     LOOP+:  cpu time    8.41: real time    8.67
    4ORBIT:  cpu time    0.00: real time    0.00

 total amount of memory used by VASP on root node    82625. kBytes
========================================================================

   base      :      30000. kBytes
   nonl-proj :      12784. kBytes
   fftplans  :       8135. kBytes
   grid      :      30707. kBytes
   one-center:         15. kBytes
   wavefun   :        984. kBytes



 General timing and accounting informations for this job:
 ========================================================

                  Total CPU time used (sec):      338.250
                            User time (sec):      306.100
                          System time (sec):       32.150
                         Elapsed time (sec):      349.513

                   Maximum memory used (kb):      180520.
                   Average memory used (kb):           0.

                          Minor page faults:      3144419
                          Major page faults:           77
                 Voluntary context switches:         9780
