 vasp.5.3.5 31Mar14 (build Jun 02 2014 14:54:32) complex

 executed on             LinuxIFC date 2015.07.17  15:12:05
 running on    1 total cores
 distrk:  each k-point on    1 cores,    1 groups
 distr:  one band on NCORES_PER_BAND=   1 cores,    1 groups


--------------------------------------------------------------------------------------------------------


 INCAR:
 POTCAR:    PAW_PBE C 08Apr2002
 POTCAR:    PAW_PBE O 08Apr2002
 POTCAR:    PAW_PBE C 08Apr2002
   VRHFIN =C: s2p2
   LEXCH  = PE
   EATOM  =   147.1560 eV,   10.8157 Ry

   TITEL  = PAW_PBE C 08Apr2002
   LULTRA =        F    use ultrasoft PP ?
   IUNSCR =        1    unscreen: 0-lin 1-nonlin 2-no
   RPACOR =    1.200    partial core radius
   POMASS =   12.011; ZVAL   =    4.000    mass and valenz
   RCORE  =    1.500    outmost cutoff radius
   RWIGS  =    1.630; RWIGS  =    0.863    wigner-seitz radius (au A)
   ENMAX  =  400.000; ENMIN  =  300.000 eV
   ICORE  =        2    local potential
   LCOR   =        T    correct aug charges
   LPAW   =        T    paw PP
   EAUG   =  644.873
   DEXC   =    0.000
   RMAX   =    1.529    core radius for proj-oper
   RAUG   =    1.300    factor for augmentation sphere
   RDEP   =    1.501    radius for radial grids
   RDEPT  =    1.300    core radius for aug-charge

   Atomic configuration
    4 entries
     n  l   j            E        occ.
     1  0  0.50      -273.3789   2.0000
     2  0  0.50       -13.7508   2.0000
     2  1  0.50        -5.2854   2.0000
     3  2  1.50        -5.4423   0.0000
   Description
     l       E           TYP  RCUT    TYP  RCUT
     0    -13.7508458     23  1.200
     0     -8.2022199     23  1.200
     1     -5.2854383     23  1.500
     1     34.0145650     23  1.500
     2     -5.4423304      7  1.500
  local pseudopotential read in
  partial core-charges read in
  partial kinetic energy density read in
  atomic valenz-charges read in
  non local Contribution for L=           0  read in
    real space projection operators read in
  non local Contribution for L=           0  read in
    real space projection operators read in
  non local Contribution for L=           1  read in
    real space projection operators read in
  non local Contribution for L=           1  read in
    real space projection operators read in
    PAW grid and wavefunctions read in

   number of l-projection  operators is LMAX  =           4
   number of lm-projection operators is LMMAX =           8

 POTCAR:    PAW_PBE O 08Apr2002
   VRHFIN =O: s2p4
   LEXCH  = PE
   EATOM  =   432.3788 eV,   31.7789 Ry

   TITEL  = PAW_PBE O 08Apr2002
   LULTRA =        F    use ultrasoft PP ?
   IUNSCR =        1    unscreen: 0-lin 1-nonlin 2-no
   RPACOR =    1.200    partial core radius
   POMASS =   16.000; ZVAL   =    6.000    mass and valenz
   RCORE  =    1.520    outmost cutoff radius
   RWIGS  =    1.550; RWIGS  =    0.820    wigner-seitz radius (au A)
   ENMAX  =  400.000; ENMIN  =  300.000 eV
   ICORE  =        2    local potential
   LCOR   =        T    correct aug charges
   LPAW   =        T    paw PP
   EAUG   =  605.392
   DEXC   =    0.000
   RMAX   =    1.553    core radius for proj-oper
   RAUG   =    1.300    factor for augmentation sphere
   RDEP   =    1.550    radius for radial grids
   RDEPT  =    1.329    core radius for aug-charge

   Atomic configuration
    4 entries
     n  l   j            E        occ.
     1  0  0.50      -514.6923   2.0000
     2  0  0.50       -23.9615   2.0000
     2  1  0.50        -9.0305   4.0000
     3  2  1.50        -9.5241   0.0000
   Description
     l       E           TYP  RCUT    TYP  RCUT
     0    -23.9615318     23  1.200
     0     -9.5240782     23  1.200
     1     -9.0304911     23  1.520
     1      8.1634956     23  1.520
     2     -9.5240782      7  1.500
  local pseudopotential read in
  partial core-charges read in
  partial kinetic energy density read in
  kinetic energy density of atom read in
  atomic valenz-charges read in
  non local Contribution for L=           0  read in
    real space projection operators read in
  non local Contribution for L=           0  read in
    real space projection operators read in
  non local Contribution for L=           1  read in
    real space projection operators read in
  non local Contribution for L=           1  read in
    real space projection operators read in
    PAW grid and wavefunctions read in

   number of l-projection  operators is LMAX  =           4
   number of lm-projection operators is LMMAX =           8

  PAW_PBE C 08Apr2002                   :
 energy of atom  1       EATOM= -147.1560
 kinetic energy error for atom=    0.0288 (will be added to EATOM!!)
  PAW_PBE O 08Apr2002                   :
 energy of atom  2       EATOM= -432.3788
 kinetic energy error for atom=    0.1156 (will be added to EATOM!!)


 POSCAR:  header
  positions in cartesian coordinates
  velocities in cartesian coordinates
  No initial velocities read in
 exchange correlation table for  LEXCH =        8
   RHO(1)=    0.500       N(1)  =     2000
   RHO(2)=  100.500       N(2)  =     4000



--------------------------------------------------------------------------------------------------------


 ion  position               nearest neighbor table
   1  0.000  0.000  0.000-   2 1.12
   2  0.000  0.000  0.075-   1 1.12

  LATTYP: Found a simple cubic cell.
 ALAT       =    15.0000000000

  Lattice vectors:

 A1 = (  15.0000000000,   0.0000000000,   0.0000000000)
 A2 = (   0.0000000000,  15.0000000000,   0.0000000000)
 A3 = (   0.0000000000,   0.0000000000,  15.0000000000)


Analysis of symmetry for initial positions (statically):
=====================================================================
 Subroutine PRICEL returns:
 Original cell was already a primitive cell.


 Routine SETGRP: Setting up the symmetry group for a
 simple cubic supercell.


 Subroutine GETGRP returns: Found  8 space group operations
 (whereof  8 operations were pure point group operations)
 out of a pool of 48 trial point group operations.


The static configuration has the point symmetry C_4v.


Analysis of symmetry for dynamics (positions and initial velocities):
=====================================================================
 Subroutine PRICEL returns:
 Original cell was already a primitive cell.


 Routine SETGRP: Setting up the symmetry group for a
 simple cubic supercell.


 Subroutine GETGRP returns: Found  8 space group operations
 (whereof  8 operations were pure point group operations)
 out of a pool of 48 trial point group operations.


The dynamic configuration has the point symmetry C_4v.


 KPOINTS: Gamma point only
  k-points in reciprocal lattice
Space group operators:
 irot       det(A)        alpha          n_x          n_y          n_z        tau_x        tau_y        tau_z
    1     1.000000     0.000000     1.000000     0.000000     0.000000     0.000000     0.000000     0.000000
    2     1.000000    90.000000     0.000000     0.000000    -1.000000     0.000000     0.000000     0.000000
    3     1.000000   180.000000     0.000000     0.000000     1.000000     0.000000     0.000000     0.000000
    4     1.000000    90.000000     0.000000     0.000000     1.000000     0.000000     0.000000     0.000000
    5    -1.000000   180.000000     1.000000     0.000000     0.000000     0.000000     0.000000     0.000000
    6    -1.000000   180.000000     0.707107     0.707107     0.000000     0.000000     0.000000     0.000000
    7    -1.000000   180.000000     0.000000     1.000000     0.000000     0.000000     0.000000     0.000000
    8    -1.000000   180.000000     0.707107    -0.707107     0.000000     0.000000     0.000000     0.000000

 -----------------------------------------------------------------------------
|                                                                             |
|           W    W    AA    RRRRR   N    N  II  N    N   GGGG   !!!           |
|           W    W   A  A   R    R  NN   N  II  NN   N  G    G  !!!           |
|           W    W  A    A  R    R  N N  N  II  N N  N  G       !!!           |
|           W WW W  AAAAAA  RRRRR   N  N N  II  N  N N  G  GGG   !            |
|           WW  WW  A    A  R   R   N   NN  II  N   NN  G    G                |
|           W    W  A    A  R    R  N    N  II  N    N   GGGG   !!!           |
|                                                                             |
|      Your generating k-point grid is not commensurate to the symmetry       |
|      of the lattice.  This can cause   slow convergence with respect        |
|      to k-points for HF type calculations                                   |
|      suggested SOLUTIONS:                                                   |
|       ) if not already the case, use automatic k-point generation           |
|       ) shift your grid to Gamma (G) (e.g. required for hex or fcc lattice) |
|                                                                             |
 -----------------------------------------------------------------------------


 Subroutine IBZKPT_HF returns following result:
 ==============================================

 Found      1 k-points in 1st BZ
 the following      1 k-points will be used (e.g. in the exchange kernel)
 Following reciprocal coordinates:   # in IRBZ
  0.000000  0.000000  0.000000       1 t-inv F


--------------------------------------------------------------------------------------------------------




 Dimension of arrays:
   k-points           NKPTS =      1   k-points in BZ     NKDIM =      1   number of bands    NBANDS=      9
   number of dos      NEDOS =    301   number of ions     NIONS =      2
   non local maximal  LDIM  =      4   non local SUM 2l+1 LMDIM =      8
   total plane-waves  NPLWV = 512000
   max r-space proj   IRMAX =      1   max aug-charges    IRDMAX=   2167
   dimension x,y,z NGX =    80 NGY =   80 NGZ =   80
   dimension x,y,z NGXF=   160 NGYF=  160 NGZF=  160
   support grid    NGXF=   160 NGYF=  160 NGZF=  160
   ions per type =               1   1
 NGX,Y,Z   is equivalent  to a cutoff of   8.87,  8.87,  8.87 a.u.
 NGXF,Y,Z  is equivalent  to a cutoff of  17.73, 17.73, 17.73 a.u.


 I would recommend the setting:
   dimension x,y,z NGX =    73 NGY =   73 NGZ =   73
 SYSTEM =  CO
 POSCAR =   header

 Startparameter for this run:
   NWRITE =      2    write-flag & timer
   PREC   = normal    normal or accurate (medium, high low for compatibility)
   ISTART =      1    job   : 0-new  1-cont  2-samecut
   ICHARG =      0    charge: 1-file 2-atom 10-const
   ISPIN  =      1    spin polarized calculation?
   LNONCOLLINEAR =      F non collinear calculations
   LSORBIT =      F    spin-orbit coupling
   INIWAV =      1    electr: 0-lowe 1-rand  2-diag
   LASPH  =      F    aspherical Exc in radial PAW
   METAGGA=      F    non-selfconsistent MetaGGA calc.

 Electronic Relaxation 1
   ENCUT  =  400.0 eV  29.40 Ry    5.42 a.u.  24.46 24.46 24.46*2*pi/ulx,y,z
   ENINI  =  400.0     initial cutoff
   ENAUG  =  644.9 eV  augmentation charge cutoff
   NELM   =     60;   NELMIN=  2; NELMDL=  0     # of ELM steps
   EDIFF  = 0.1E-04   stopping-criterion for ELM
   LREAL  =      F    real-space projection
   NLSPLINE    = F    spline interpolate recip. space projectors
   LCOMPAT=      F    compatible to vasp.4.4
   GGA_COMPAT  = T    GGA compatible to vasp.4.4-vasp.4.6
   LMAXPAW     = -100 max onsite density
   LMAXMIX     =    2 max onsite mixed and CHGCAR
   VOSKOWN=      0    Vosko Wilk Nusair interpolation
   ROPT   =    0.00000   0.00000
 Ionic relaxation
   EDIFFG = -.1E-01   stopping-criterion for IOM
   NSW    =     61    number of steps for IOM
   NBLOCK =      1;   KBLOCK =      1    inner block; outer block
   IBRION =      5    ionic relax: 0-MD 1-quasi-New 2-CG
   NFREE  =      2    steps in history (QN), initial steepest desc. (CG)
   ISIF   =      0    stress and relaxation
   IWAVPR =     11    prediction:  0-non 1-charg 2-wave 3-comb
   ISYM   =      2    0-nonsym 1-usesym 2-fastsym
   LCORR  =      T    Harris-Foulkes like correction to forces

   POTIM  = 0.5000    time-step for ionic-motion
   TEIN   =    0.0    initial temperature
   TEBEG  =    0.0;   TEEND  =   0.0 temperature during run
   SMASS  =  -3.00    Nose mass-parameter (am)
   estimated Nose-frequenzy (Omega)   =  0.10E-29 period in steps =****** mass=  -0.514E-26a.u.
   SCALEE = 1.0000    scale energy and forces
   NPACO  =    256;   APACO  = 16.0  distance and # of slots for P.C.
   PSTRESS=    0.0 pullay stress

  Mass of Ions in am
   POMASS =  12.01 16.00
  Ionic Valenz
   ZVAL   =   4.00  6.00
  Atomic Wigner-Seitz radii
   RWIGS  =  -1.00 -1.00
  virtual crystal weights
   VCA    =   1.00  1.00
   NELECT =      10.0000    total number of electrons
   NUPDOWN=      -1.0000    fix difference up-down

 DOS related values:
   EMIN   =  10.00;   EMAX   =-10.00  energy-range for DOS
   EFERMI =   0.00
   ISMEAR =     1;   SIGMA  =   0.20  broadening in eV -4-tet -1-fermi 0-gaus

 Electronic relaxation 2 (details)
   IALGO  =     48    algorithm
   LDIAG  =      T    sub-space diagonalisation (order eigenvalues)
   LSUBROT=      F    optimize rotation matrix (better conditioning)
   TURBO    =      0    0=normal 1=particle mesh
   IRESTART =      0    0=no restart 2=restart with 2 vectors
   NREBOOT  =      0    no. of reboots
   NMIN     =      0    reboot dimension
   EREF     =   0.00    reference energy to select bands
   IMIX   =      4    mixing-type and parameters
     AMIX     =   0.40;   BMIX     =  1.00
     AMIX_MAG =   1.60;   BMIX_MAG =  1.00
     AMIN     =   0.10
     WC   =   100.;   INIMIX=   1;  MIXPRE=   1;  MAXMIX= -45

 Intra band minimization:
   WEIMIN = 0.0010     energy-eigenvalue tresh-hold
   EBREAK =  0.28E-06  absolut break condition
   DEPER  =   0.30     relativ break condition

   TIME   =   0.40     timestep for ELM

  volume/ion in A,a.u.               =    1687.50     11387.81
  Fermi-wavevector in a.u.,A,eV,Ry     =   0.235135  0.444340  0.752244  0.055288
  Thomas-Fermi vector in A             =   1.033980

 Write flags
   LWAVE  =      T    write WAVECAR
   LCHARG =      F    write CHGCAR
   LVTOT  =      F    write LOCPOT, total local potential
   LVHAR  =      F    write LOCPOT, Hartree potential only
   LELF   =      F    write electronic localiz. function (ELF)
   LORBIT =      0    0 simple, 1 ext, 2 COOP (PROOUT)


 Dipole corrections
   LMONO  =      F    monopole corrections only (constant potential shift)
   LDIPOL =      F    correct potential (dipole corrections)
   IDIPOL =      0    1-x, 2-y, 3-z, 4-all directions
   EPSILON=  1.0000000 bulk dielectric constant

 Exchange correlation treatment:
   GGA     =    PE    GGA type
   LEXCH   =     8    internal setting for exchange type
   VOSKOWN=      0    Vosko Wilk Nusair interpolation
   LHFCALC =     F    Hartree Fock is set to
   LHFONE  =     F    Hartree Fock one center treatment
   AEXX    =    0.0000 exact exchange contribution

 Linear response parameters
   LEPSILON=     F    determine dielectric tensor
   LRPA    =     F    only Hartree local field effects (RPA)
   LNABLA  =     F    use nabla operator in PAW spheres
   LVEL    =     F    velocity operator in full k-point grid
   LINTERFAST=   F  fast interpolation
   KINTER  =     0    interpolate to denser k-point grid
   CSHIFT  =0.1000    complex shift for real part using Kramers Kronig
   OMEGAMAX=  -1.0    maximum frequency
   DEG_THRESHOLD= 0.2000000E-02 threshold for treating states as degnerate
   RTIME   =    0.100 relaxation time in fs

 Orbital magnetization related:
   ORBITALMAG=     F  switch on orbital magnetization
   LCHIMAG   =     F  perturbation theory with respect to B field
   DQ        =  0.001000  dq finite difference perturbation B field



--------------------------------------------------------------------------------------------------------


 finite differences
 charge density and potential will be updated during run
 non-spin polarized calculation
 RMM-DIIS sequential band-by-band
 perform sub-space diagonalisation
    before iterative eigenvector-optimisation
 modified Broyden-mixing scheme, WC =      100.0
 initial mixing is a Kerker type mixing with AMIX =  0.4000 and BMIX =      1.0000
 Hartree-type preconditioning will be used
 using additional bands            4
 reciprocal scheme for non local part
 use partial core corrections
 calculate Harris-corrections to forces
   (improved forces if not selfconsistent)
 use gradient corrections
 use of overlap-Matrix (Vanderbilt PP)
 Methfessel and Paxton  Order N= 1 SIGMA  =   0.20


--------------------------------------------------------------------------------------------------------


  energy-cutoff  :      400.00
  volume of cell :     3375.00
      direct lattice vectors                 reciprocal lattice vectors
    15.000000000  0.000000000  0.000000000     0.066666667  0.000000000  0.000000000
     0.000000000 15.000000000  0.000000000     0.000000000  0.066666667  0.000000000
     0.000000000  0.000000000 15.000000000     0.000000000  0.000000000  0.066666667

  length of vectors
    15.000000000 15.000000000 15.000000000     0.066666667  0.066666667  0.066666667



 old parameters found on file WAVECAR:
  energy-cutoff  :      400.00
  volume of cell :     3375.00
      direct lattice vectors                 reciprocal lattice vectors
    15.000000000  0.000000000  0.000000000     0.066666667  0.000000000  0.000000000
     0.000000000 15.000000000  0.000000000     0.000000000  0.066666667  0.000000000
     0.000000000  0.000000000 15.000000000     0.000000000  0.000000000  0.066666667

  length of vectors


 k-points in units of 2pi/SCALE and weight: Gamma point only
   0.00000000  0.00000000  0.00000000       1.000

 k-points in reciprocal lattice and weights: Gamma point only
   0.00000000  0.00000000  0.00000000       1.000

 position of ions in fractional coordinates (direct lattice)
   0.00000000  0.00000000  0.00000000
   0.00000000  0.00000000  0.07466667

 position of ions in cartesian coordinates  (Angst):
   0.00000000  0.00000000  0.00000000
   0.00000000  0.00000000  1.12000000



--------------------------------------------------------------------------------------------------------


 k-point  1 :   0.0000 0.0000 0.0000  plane waves:   61445

 maximum and minimum number of plane-waves per node :     61445    61445

 maximum number of plane-waves:     61445
 maximum index in each direction:
   IXMAX=   24   IYMAX=   24   IZMAX=   24
   IXMIN=  -24   IYMIN=  -24   IZMIN=  -24

 WARNING: aliasing errors must be expected set NGX to  98 to avoid them
 WARNING: aliasing errors must be expected set NGY to  98 to avoid them
 WARNING: aliasing errors must be expected set NGZ to  98 to avoid them
 aliasing errors are usually negligible using standard VASP settings
 and one can safely disregard these warnings

 serial   3D FFT for wavefunctions
 parallel 3D FFT for charge:
    minimum data exchange during FFTs selected (reduces bandwidth)


 total amount of memory used by VASP on root node   441793. kBytes
========================================================================

   base      :      30000. kBytes
   nonl-proj :       9831. kBytes
   fftplans  :     141100. kBytes
   grid      :     252006. kBytes
   one-center:          6. kBytes
   wavefun   :       8850. kBytes

     INWAV:  cpu time    0.03: real time    1.77
 Broyden mixing: mesh for mixing (old mesh)
   NGX = 49   NGY = 49   NGZ = 49
  (NGX  =160   NGY  =160   NGZ  =160)
  gives a total of 117649 points

 charge density for first step will be calculated from the start-wavefunctions


--------------------------------------------------------------------------------------------------------


 Maximum index for augmentation-charges         1907 (set IRDMAX)


--------------------------------------------------------------------------------------------------------


 initial charge from wavefunction
 First call to EWALD:  gamma=   0.118
 Maximum number of real-space cells 3x 3x 3
 Maximum number of reciprocal cells 3x 3x 3

 FEWALD executed in parallel
    FEWALD:  cpu time    0.01: real time    0.01


----------------------------------------- Iteration    1(   1)  ---------------------------------------


    POTLOK:  cpu time    2.60: real time    2.60
    SETDIJ:  cpu time    0.00: real time    0.00
    EDDIAG      POTLOK:  cpu time    3.48: real t  RMM-DIIS:  cpu time    1.32: real time    1.35
    ORTHCH:     EDDIAG:  cpu time    0.35: real time    0.3    RMM-DIIS:  cpu time    1.62: real time    1.62
    ORTHCH:  cpu time    0.01: real time    0.01
       DOS:  cpu time    0.00: real time    0.00     CHARGE:  cpu time    0.39: real time    0.39     MIXING:  cpu time    0.11: real time    0.11
    --------------------------------------------
      LOOP:  cpu time    5.97: real time    6.05

 eigenvalue-minimisations  :    18
 total energy-change (2. order)     MIXING:  cpu time    0.10: real time    0.10
    --------------------------------------------
      LOOP    MIXING:  cpu time    0.10: real time    0.10
    --------------------------------------------
      LOOP:  cpu time    6.00: real time    6.12

 eigenvalue-minimisations  :    18
 total energy-change (2. order) :-0.1481831E+02  (-0.2365496E+00)
 number of electron       9.9999942 magnetization
 augmentation part        0.6613958 magnetization

 Broyden mixing:
  rms(total) = 0.15343E+00    rms(broyden)= 0.15329E+00
  rms(prec ) = 0.16707E+00
  weight for this iteration     100.00

 Free energy of the ion-electron system (eV)
  ---------------------------------------------------
  alpha Z        PSCENC =         0.12946890
  Ewald energy   TEWEN  =       172.64985029
  -Hartree energ DENC   =      -648.32092697
  -exchange      EXHF   =         0.00000000
  -V(xc)+E(xc)   XCENC  =        40.45469606
  PAW double counting   =       867.07080754     -869.57057764
  entropy T*S    EENTRO =         0.01159581
  eigenvalues    EBANDS =      -156.63364287
  atomic energy  EATOM  =       579.39041991
  ---------------------------------------------------
  free energy    TOTEN      POTLOK:  cpu time    3.16: real time    3.16
    SETDIJ:  cpu time    0.00: real time    0.00
    EDDIAG:  cpu time    0.36: real time    0.36
  RMM-DIIS:  cpu time    1.36: real time    1.37
    ORTHCH:  cpu time    0.01: real time    0.01
       DOS:  cpu time    0.00: real time    0.00
    CHARGE:  cpu time    0.44: real time    0.44
    MIXING:  cpu time    0.13: real time    0.13
    --------------------------------------------
      LOOP:  cpu time    5.47: real time    5.77

 eigenvalue-minimisa    CHARGE:  cpu time    0.43: real time    0.43
    MIXING:  cpu time    0.12: real time    0.12
    --------------------------------------------
      LOOP:  cpu time    5.31: real time    5.36

 eigenvalue-minimisa    CHARGE:  cpu time    0.45: real time    0.45
    MIXING:  cpu time    0.12: real time    0.12
    --------------------------------------------
      LOOP:  cpu time    5.41: real time    5.43

 eigenvalue-minimisa    CHARGE:  cpu time    0.42: real time    0.42
    MIXING:  cpu time    0.12: real time    0.12
    --------------------------------------------
      LOOP:  cpu time    5.41: real time    5.41

 eigenvalue-minimisations  :    18
 total energy-change (2. order) :     MIXING:  cpu time    0.12: real time    0.12
    --------------------------------------------
      LOOP:  cpu time    5.42: real time    5.44

 eigenvalue-minimisations  :    18
 total energy-change (2. order) :     MIXING:  cpu time    0.13: real time    0.12
    --------------------------------------------
      LOOP:  cpu time    5.42: real time    5.45

 eigenvalue-minimisations  :    18
 total energy-change (2. order) :     MIXING:  cpu time    0.13: real time    0.12
    --------------------------------------------
      LOOP:  cpu time    5.44: real time    5.46

 eigenvalue-minimisations  :    18
 total energy-change (2. order) :     MIXING:  cpu time    0.13: real time    0.13
    --------------------------------------------
      LOOP:  cpu time    5.29: real time    5.30

 eigenvalue-minimisations  :    18
 total energy-change (2. order) :     MIXING:  cpu time    0.13: real time    0.13
    --------------------------------------------
      LOOP:  cpu time    5.30: real time    5.31

 eigenvalue-minimisa    CHARGE:  cpu time    0.41: real time    0.40
    MIXING:  cpu time    0.10: real time    0.11
    --------------------------------------------
      LOOP:  cpu time    5.48: real time    5.49

 eigenvalue-minimisations  :    18
 total energy-change (2. order) : 0.4997076E-01  (-0.3691494E-02)
 number of electron       9.9999942 magnetization
 augmentation part        0.6670578 magnetization

 Broyden mixing:
  rms(total) = 0.93293E-01    rms(broyden)= 0.93279E-01
  rms(pre    MIXING:  cpu time    0.11: real time    0.11
    --------------------------------------------
      LOOP:  cpu time    5.41: real time    5.42

 eigenvalue-minimisations  :    18
 total energy-change (2. order) :     MIXING:  cpu time    0.10: real time    0.11
    --------------------------------------------
      LOOP:  cpu time    5.42: real time    5.43

 eigenvalue-minimisations  :    18
 total energy-change (2. order) :     MIXING:  cpu time    0.12: real time    0.12
    --------------------------------------------
      LOOP:  cpu time    5.45: real time    5.46

 eigenvalue-minimisa    CHARGE:  cpu time    0.40: real time    0.41
    MIXING:  cpu time    0.11: real time    0.11
    --------------------------------------------
      LOOP:  cpu time    5.58: real time    5.59

 eigenvalue-minimisations  :    18
 total energy-change (2. order) :     MIXING:  cpu time    0.11: real time    0.11
    --------------------------------------------
      LOOP:  cpu time    5.59: real time    5.61

 eigenvalue-minimisations  :    18
 total energy-change (2. order) :     MIXING:  cpu time    0.12: real time    0.11
    --------------------------------------------
      LOOP:  cpu time    5.59: real time    5.60

 eigenvalue-minimisa    CHARGE:  cpu time    0.36: real time    0.36
    MIXING:  cpu time    0.11: real time    0.11
    --------------------------------------------
      LOOP:  cpu time    5.69: real time    5.76

 eigenvalue-minimisations  :    18
 total energy-change (2. order) : 0.4997076E-01  (-0.3691494E-02)
 number of electron       9.9999942 magnetization
 augmentation part           MIXING:  cpu time    0.11: real time    0.11
    --------------------------------------------
      LOOP:  cpu time    5.69: real time    5.72

 eigenvalue-minimisations  :    18
 total energy-change (2. order) :     MIXING:  cpu time    0.10: real time    0.10
    --------------------------------------------
      LOOP:  cpu time    5.73: real time    5.75

 eigenvalue-minimisations  :    18
 total    POTLOK:  cpu time    3.08: real time    3.10
    SETDIJ:  cpu time    0.00: real time    0.00
    EDDIAG:  cpu time    0.28: real time    0.28
  RMM-DIIS:  cpu time    1.31: real time    1.33
    ORTHCH:  cpu time    0.01: real time    0.01
       DOS:  cpu time    0.00: real time    0.00
    CHARGE:  cpu time    0.40: real time    0.39
    MIXING:  cpu time    0.13: real time    0.13
    --------------------------------------------
      LOOP:  cpu time    5.22: real time    5.25

 eigenvalue-minimisa    CHARGE:  cpu time    0.42: real time    0.42
    MIXING:  cpu time    0.12: real time    0.12
    --------------------------------------------
      LOOP:  cpu time    5.50: real time    5.51

 eigenvalue-minimisations  :    18
 total energy-change (2. order) :     MIXING:  cpu time    0.13: real time    0.12
    --------------------------------------------
      LOOP:  cpu time    5.30: real time    5.33

 eigenvalue-minimisa    CHARGE:  cpu time    0.45: real time    0.45
    MIXING:  cpu time    0.13: real time    0.13
    --------------------------------------------
      LOOP:  cpu time    5.53: real time    5.55

 eigenvalue-minimisations  :    18
 total energy-change (2. order) :     MIXING:  cpu time    0.12: real time    0.13
    --------------------------------------------
      LOOP:  cpu time    5.36: real time    5.37

 eigenvalue-minimisations  :    18
 total energy-change (2. order) :     MIXING:  cpu time    0.12: real time    0.12
    --------------------------------------------
      LOOP:  cpu time    5.42: real time    5.43

 eigenvalue-minimisations  :    18
 total energy-change (2. order) :     MIXING:  cpu time    0.13: real time    0.12
    --------------------------------------------
      LOOP:  cpu time    5.43: real time    5.45

 eigenvalue-minimisations  :    18
 total energy-change (2. order) :     MIXING:  cpu time    0.12: real time    0.13
    --------------------------------------------
      LOOP:  cpu time    5.42: real time    5.46

 eigenvalue-minimisations  :    18
 total energy-change (2. order) :     MIXING:  cpu time    0.13: real time    0.13
    --------------------------------------------
      LOOP:  cpu time    5.45: real time    5.46

 eigenvalue-minimisations  :    18
 total energy-change (2. order) :     MIXING:  cpu time    0.13: real time    0.13
    --------------------------------------------
      LOOP:  cpu time    5.44: real time    5.46

 eigenvalue-minimisa    CHARGE:  cpu time    0.40: real time    0.40
    MIXING:  cpu time    0.12: real time    0.12
    --------------------------------------------
      LOOP:  cpu time    5.32: real time    5.33

 eigenvalue-minimisa    CHARGE:  cpu time    0.40: real time    0.40
    MIXING:  cpu time    0.12: real time    0.12
    --------------------------------------------
      LOOP:  cpu time    5.52: real time    5.52

 eigenvalue-minimisations  :    18
 total energy-change (2. order) : 0.1560791E-01  (-0.7462609E-02)
 number of electron       9.9999942 magnetization
 augmentation part        0.6637491 magnetization

 Broyden mixing:
  rms(total) = 0.24187E-01    rms(broyden)= 0.24173E-01
  rms(pre    MIXING:  cpu time    0.12: real time    0.12
    --------------------------------------------
      LOOP:  cpu time    5.45: real time    5.47

 eigenvalue-minimisations  :    18
 total energy-change (2. order) :     MIXING:  cpu time    0.12: real time    0.11
    --------------------------------------------
      LOOP:  cpu time    5.44: real time    5.46

 eigenvalue-minimisa    CHARGE:  cpu time    0.42: real time    0.41
    MIXING:  cpu time    0.11: real time    0.11
    --------------------------------------------
      LOOP:  cpu time    5.57: real time    5.58

 eigenvalue-minimisations  :    18
 total energy-change (2. order) :     MIXING:  cpu time    0.11: real time    0.11
    --------------------------------------------
      LOOP:  cpu time    5.58: real time    5.60

 eigenvalue-minimisations  :    18
 total energy-change (2. order) :     MIXING:  cpu time    0.11: real time    0.11
    --------------------------------------------
      LOOP:  cpu time    5.57: real time    5.59

 eigenvalue-minimisa    CHARGE:  cpu time    0.35: real time    0.35
    MIXING:  cpu time    0.11: real time    0.11
    --------------------------------------------
      LOOP:  cpu time    5.60: real time    5.62

 eigenvalue-minimisations  :    18
 total energy-change (2. order) :     MIXING:  cpu time    0.11: real time    0.11
    --------------------------------------------
      LOOP:  cpu time    5.59: real time    5.61

 eigenvalue-minimisations  :    18
 total energy-change (2. order) :     MIXING:  cpu time    0.11: real time    0.10
    --------------------------------------------
      LOOP:  cpu time    5.60: real time    5.61

 eigenvalue-minimisations  :    18
 total energy-change (2. order) :     MIXING:  cpu time    0.10: real time    0.11
    --------------------------------------------
      LOOP:  cpu time    5.60: real time    5.61

 eigenvalue-minimisa    CHARGE:  cpu time    0.33: real time    0.33
    MIXING:  cpu time    0.11: real time    0.11
    --------------------------------------    POTLOK:  cpu time    3.15: real time    3.16
    SETDIJ:  cpu time    0.00: real time    0.00
    EDDIAG:  cpu time    0.31: real time    0.30
  RMM-DIIS:  cpu time    1.32: real time    1.34
    ORTHCH:  cpu time    0.01: real time    0.01
       DOS:  cpu time    0.00: real time    0.00
    CHARGE:  cpu time    0.41: real time    0.41
    MIXING:  cpu time  RMM-DIIS:  cpu time    1.38: real time    1.38
    ORTHCH:  cpu time    0.01: real time    0.01
       DOS:  cpu time    0.00: real time    0.00
    CHARGE:  cpu time    0.40: real time    0.40
    MIXING:  cpu time    0.14: real time    0.14
    --------------------------------------------
      LOOP:  cpu time    5.46: real time    5.48

 eigenvalue-minimisations  :    18
 total energy-change (2. order) : 0.1950401E-03  (-0.2203465E-03)
 number of electron       9.9999942 magnetization
 augmentation part        0.6652740 magnetization

 Broyden mixing:
  rms(total) = 0    CHARGE:  cpu time    0.45: real time    0.45
    MIXING:  cpu time    0.13: real time    0.14
    --------------------------------------------
      LOOP:  cpu time    5.55: real time    5.57

 eigenvalue-minimisations  :    18
 total energy-change (2. order) : 0.1950401E-03  (-0.2203465E-03)
 number of electron       9.9999942 magnetization
 augmentation part        0.6652740 magnetization

 Broyden mixing:
  rms(total) = 0.11815E-01    rms(broyden)= 0.11811E-01
  rms(pre    MIXING:  cpu time    0.14: real time    0.14
    ----
 eigenvalues of (default mixing * dielectric matrix)
  average eigenvalue GAMMA=   1.7377
  2.1938  2.1938  0.8257

 Free energy of the ion-electron system (eV    MIXING:  cpu time    0.13: real time    0.13
    --------------------------------------------
      LOOP:  cpu time    5.46: real time    5.49

 eigenvalue-minimisations  :    18
 total energy-change (2. order) :     MIXING:  cpu time    0.12: real time    0.12
    --------------------------------------------
      LOOP:  cpu time    5.48: real time    5.51

 eigenvalue-minimisations  :    18
 total energy-change (2. order) :     MIXING:  cpu time    0.14: real time    0.14
    --------------------------------------------
      LOOP:  cpu time    5.52: real time    5.53

 eigenvalue-minimisations  :    18
 total energy-change (2. order) :     MIXING:  cpu time    0.14: real time    0.14
    --------------------------------------------
      LOOP:  cpu time    5.54: real time    5.55

 eigenvalue-minimisations  :    18
 total energy-change (2. order) :     MIXING:  cpu time    0.11: real time    0.11
    --------------------------------------------
      LOOP:  cpu time    5.39: real time    5.40

 eigenvalue-minimisa    CHARGE:  cpu time    0.37: real time    0.37
    MIXING:  cpu time    0.11: real time    0.11
    --------------------------------------------
      LOOP:  cpu time    5.43: real time    5.45

 eigenvalue-minimisations  :    18
 total energy-change (2. order) :     MIXING:  cpu time    0.12: real time    0.11
    --------------------------------------------
      LOOP:  cpu time    5.49: real time    5.51

 eigenvalue-minimisations  :    18
 total energy-change (2. order) : 0.1950401E-03  (-0.2203465E-03)
 number of electron       9.9999942 magnetization
 augmentation part        0.6652740 magnetization

 Broyden mixing:
  rms(total) = 0.11815E-01    rms(broyden)= 0.11811E-01
  rms(pre    MIXING:  cpu time  RMM-DIIS:  cpu time    1.62: real time    1.61
    ORTHCH:  cpu time    0.01: real time    0.01
       DOS:  cpu time    0.00: real time    0.00
    CHARGE:  cpu time    0.39: real time    0.40
    MIXING:  cpu time    0.12: real time    0.11
    --------------------------------------------
      LOOP:  cpu time    5.57: real time    5.64

 eigenvalue-minimisations  :    18
 total energy-change (2. order) :     MIXING:  cpu time    0.11: real time    0.11
    --------------------------------------------
      LOOP:  cpu time    5.58: real time    5.60

 eigenvalue-minimisations  :    18
 total energy-change (2. order) :    MIXING:  cpu time    0.12: real time    0.12
    --------------------------------------------
      LOOP:  cpu time    5.61: real time    5.62

 eigenvalue-minimisa    CHARGE:  cpu time    0.35: real time    0.36
    MIXING:  cpu time    0.12: real time    0.12
    --------------------------------------------
      LOOP:  cpu time    5.64: real time    5.65

 eigenvalue-minimisations  :    18
 total energy-change (2. order) :     MIXING:  cpu time    0.12: real time    0.12
    --------------------------------------------
      LOOP:  cpu time    5.62: real time    5.63

 eigenvalue-minimisations  :    18
 total energy-change (2. order) :     MIXING:  cpu time    0.11: real time    0.11
    --------------------------------------------
      LOOP:  cpu time    5.62: real time    5.64

 eigenvalue-minimisations  :    18
 total energy-change (2. order) :     MIXING:  cpu time    0.11: real time    0.11
    --------------------------------------------
      LOOP:  cpu time    5.63: real time    5.65

 eigenvalue-minimisa    CHARGE:  cpu time    0.28: real time    0.28
    MIXING:  cpu time    0.10: real time    0.11
    --------------------------------------    POTLOK:  cpu time    3.09: real time    3.11
    SETDIJ:  cpu time    0.01: real time    0.00
    EDDIAG:  cpu time    0.32: real time    0.34
  RMM-DIIS:  cpu time    1.30: real time    1.31
    ORTHCH:  cpu time    0.01: real time    0.01
       DOS:  cpu time    0.00: real time    0.00
    CHARGE:  cpu time    0.43: real time    0.43
    MIXING:  cpu time    0.14: real time    0.14
    --------------------------------------------
      LOOP:  cpu time    5.31: real time    5.36

 eigenvalue-minimisa    CHARGE:  cpu time    0.41: real time    0.42
    MIXING:  cpu time    0.14: real time    0.14
    --------------------------------------------
      LOOP:  cpu time    5.24: real time    5.29

 eigenvalue-minimisa    CHARGE:  cpu time    0.40: real time    0.40
    MIXING:  cpu time    0.14: real time    0.13
    --------------------------------------------
      LOOP:  cpu time    5.44: real time    5.50

 eigenvalue-minimisations  :    18
 total energy-change (2. order) :-    MIXING:  cpu time    0.14: real time    0.14
    --------------------------------------------
      LOOP:  cpu time    5.27: real time    5.28

 eigenvalue-minimisa    CHARGE:  cpu time    0.42: real time    0.43
    MIXING:  cpu time    0.14: real time    0.14
    --------------------------------------------
      LOOP:  cpu time    5.56: real time    5.58

 eigenvalue-minimisations  :    18
 total energy-change (2. order) :-0.9842461E-04  (-0.1652116E-03)
 number of electron       9.9999942 magnetization
 augmentation part        0.6656277 magnetization

 Broyden mixing:
  rms(total) = 0.41780E-02    rms(broyden)= 0.41753E-02
  rms(prec     MIXING:  cpu time    0.14: real time    0.13
    --------------------------------------------
      LOOP:  cpu time    5.43: real time    5.45

 eigenvalue-minimisations  :    18
 total energy-change (2. order) :-    MIXING:  cpu time    0.13: real time    0.14
    --------------------------------------------
      LOOP:  cpu time    5.50: real time    5.52

 eigenvalue-minimisations  :    18
 total energy-change (2. order) :-    MIXING:  cpu time    0.15: real time    0.15
    --------------------------------------------
      LOOP:  cpu time    5.52: real time    5.54

 eigenvalue-minimisations  :    18
 total energy-change (2. order) :-0.9842461E-04  (-0.1652116E-03)
 number of electron       9.9999942 magnetization
 augmentation part        0.6656277 magnetization

 Broyden mixing:
  rms(total) = 0    CHARGE:  cpu time    0.37: real time    0.36
    MIXING:  cpu time    0.11: real time    0.11
    --------------------------------------------
      LOOP:  cpu time    5.38: real time    5.40

 eigenvalue-minimisations  :    18
 total energy-change (2. order) :-    MIXING:  cpu time    0.12: real time    0.12
    --------------------------------------------
      LOOP:  cpu time    5.42: real time    5.44

 eigenvalue-minimisations  :    18
 total energy-change (2. order) :-    MIXING:  cpu time    0.12: real time    0.13
    --------------------------------------------
      LOOP:  cpu time    5.48: real time    5.50

 eigenvalue-minimisations  :    18
 total energy-change (2. order) :-    MIXING:  cpu time  RMM-DIIS:  cpu time    1.55: real time    1.55
    ORTHCH:  cpu time    0.01: real time    0.01
       DOS:  cpu time    0.00: real time    0.00
    CHARGE:  cpu time    0.40: real time    0.40
    MIXING:  cpu time    0.12: real time    0.13
    --------------------------------------------
      LOOP:  cpu time    5.61: real time    5.63

 eigenvalue-minimisations  :    18
 total energy-change (2. order) :-    MIXING:  cpu time    0.13: real time    0.13
    --------------------------------------------
      LOOP:  cpu time    5.63: real time    5.64

 eigenvalue-minimisations  :    18
 total energy-change (2. order) :-    MIXING:  cpu time    0.13: real time    0.13
    --------------------------------------------
      LOOP:  cpu time    5.63: real time    5.64

 eigenvalue-minimisa    CHARGE:  cpu time    0.37: real time    0.37
    MIXING:  cpu time    0.12: real time    0.12
    --------------------------------------------
      LOOP:  cpu time    5.61: real time    5.62

 eigenvalue-minimisations  :    18
 total energy-change (2. order) :-    MIXING:  cpu time    0.12: real time    0.12
    --------------------------------------------
      LOOP:  cpu time    5.62: real time    5.67

 eigenvalue-minimisations  :    18
 total energy-change (2. order) :-0.9842461E-04  (-0.1652116E-03)
 number of electron       9.9999942 magnetization
 augmentation part        0.6656277 magnetization

 Broyden mixing:
  rms(total) = 0.41780E-02    rms(broyden)= 0.41753E-02
  rms(pre    MIXING:  cpu time    0.11: real time    0.11
    ----
 eigenvalues of (default mixing * dielectric matrix)
  average eigenvalue GAMMA=   1.5716
  2.5344  0.8312  1.    CHARGE:  cpu time    0.27: real time    0.27
    MIXING:  cpu time  RMM-DIIS:  cpu time    1.34: real time    1.34
    ORTHCH:  cpu time    POTLOK:  cpu time    3.09: real time    3.13
    SETDIJ:  cpu time    0.0    CHARGE:  cpu time    0.41: real time    0.40
    MIXING:  cpu time  RMM-DIIS:  cpu time    1.35: real time    1.35
    ORTHCH:  cpu time    0.00: real time    0.01
       DOS:  cpu time    0.01: real time    0.00
    CHARGE:  cpu time    0.39: real time    0.40
    MIXING:  cpu time    0.14: real time    0.14
    --------------------------------------------
      LOOP:  cpu time    5.30: real time    5.33

 eigenvalue-minimisa    CHARGE:  cpu time    0.42: real time    0.42
    MIXING:  cpu time    0.16: real time    0.15
    --------------------------------------------
      LOOP:  cpu time    5.35: real time    5.36

 eigenvalue-minimisa    CHARGE:  cpu time    0.41: real time    0.40
    MIXING:  cpu time    0.16: real time    0.16
    --------------------------------------------
      LOOP:  cpu time    5.32: real time    5.33

 eigenvalue-minimisations  :    18
 total energy-change (2. order) :-0.4127332E-05  (-0.2146350E-04)
 number of electron       9.9999942 magnetization
 augmentation part        0.6655364 magnetization

 Broyden mixing:
  rms(total) = 0    CHARGE:  cpu time    0.40: real time    0.40
    MIXING:  cpu time    0.13: real time    0.13
    ----
 eigenvalues of (default mixing * dielectric matrix)
  average eigenvalue GAMMA=   1.6949
  2.5322  2.0660  2.0660  0.8294  0.9807

 Free energy of the ion-ele    MIXING:  cpu time    0.13: real time    0.13
    --------------------------------------------
      LOOP:  cpu time    5.27: real time    5.34

 eigenvalue-minimisa    CHARGE:  cpu time    0.39: real time    0.39
    MIXING:  cpu time    0.16: real time    0.16
    --------------------------------------------
      LOOP:  cpu time    5.53: real time    5.55

 eigenvalue-minimisations  :    18
 total energy-change (2. order) :-0.4127332E-05  (-0.2146350E-04)
 number of electron       9.9999942 magnetization
 augmentation part        0.6655364 magnetization

 Broyden mixing:
  rms(total) = 0.10751E-02    rms(broyden)= 0.10748E-02
  rms(prec ) = 0.16877E-02
  weight for this iteration     100.00

 eigenvalues of (default mixing * dielectric matrix)
  average eigenvalue GAMMA=   1.6949
  2.5322  2.0660  2.0660  0.8294  0.9807

 Free energy of the ion-ele    MIXING:  cpu time    0.14: real time    0.14
    --------------------------------------------
      LOOP:  cpu time    5.52: real time    5.53

 eigenvalue-minimisations  :    18
 total energy-change (2. order) :-    MIXING:  cpu time    0.15: real time    0.15
    --------------------------------------------
      LOOP:  cpu time    5.48: real time    5.51

 eigenvalue-minimisations  :    18
 total energy-change (2. order) :-0.4127332E-05  (-0.2146350E-04)
 number of electron       9.9999942 magnetization
 augmentation part        0.6655364 magnetization

 Broyden mixing:
  rms(total) = 0.10751E-02    rms(broyden)= 0.10748E-02
  rms(pre    MIXING:  cpu time    0.15: real time    0.14
    --------------------------------------------
      LOOP:  cpu time    5.29: real time    5.32

 eigenvalue-minimisa    CHARGE:  cpu time    0.35: real time    0.36
    MIXING:  cpu time    0.14: real time    0.14
    --------------------------------------------
      LOOP:  cpu time    5.39: real time    5.42

 eigenvalue-minimisations  :    18
 total energy-change (2. order) :-    MIXING:  cpu time  RMM-DIIS:  cpu time    1.49: real time    1.49
    ORTHCH:  cpu time    0.01: real time    0.01
       DOS:  cpu time    0.00: real time    0.00
    CHARGE:  cpu time    0.40: real time    0.41
    MIXING:  cpu time    0.14: real time    0.14
    --------------------------------------------
      LOOP:  cpu time    5.54: real time    5.56

 eigenvalue-minimisations  :    18
 total energy-change (2. order) :-    MIXING:  cpu time    0.14: real time    0.14
    --------------------------------------------
      LOOP:  cpu time    5.54: real time    5.55

 eigenvalue-minimisations  :    18
 total energy-change (2. order) :-    MIXING:  cpu time    0.14: real time    0.14
    --------------------------------------------
      LOOP:  cpu time    5.52: real time    5.54

 eigenvalue-minimisa    CHARGE:  cpu time    0.32: real time    0.32
    MIXING:  cpu time    0.13: real time    0.13
    --------------------------------------------
      LOOP:  cpu time    5.57: real time    5.64

 eigenvalue-minimisations  :    18
 total energy-change (2. order) :-    MIXING:  cpu time    0.12: real time    0.12
    --------------------------------------------
      LOOP:  cpu time    5.60: real time    5.64

 eigenvalue-minimisations  :    18
 total energy-change (2. order) :-0.4127332E-05  (-0.2146350E-04)
 number of electron       9.9999942 magnetization
 augmentation part        0.6655364 magnetization

 Broyden mixing:
  rms(total) = 0.10751E-02    rms(broyden)= 0.10748E-02
  rms(prec ) = 0.16877E-02
  w  RMM-DIIS:  cpu time    1.37: real time    1.37
    ORTHCH:  cpu time    0.01: real time    0.01
       DOS:  cpu time    0.00: real time    0.00
    CHARGE:  cpu time    0.39: real time    0.38
    MIXING:  cpu time  RMM-DIIS:  cpu time    1.04: real time    1.04
    ORTHCH:  cpu time    0.01: real time    0.01
       DOS:  cpu time    0.00: real time    0.00
    CHARGE:  cpu time    0.37: real time    0.37
    MIXING:  cpu time    0.15: real time    0.15
    --------------------------------------------
      LOOP:  cpu time    4.99: real time    5.03

 eigenvalue-minimisa    CHARGE:  cpu time    0.39: real time    0.38
    MIXING:  cpu time  RMM-DIIS:  cpu time    1.17: real time    1.16
    ORTHCH:  cpu time    0.01: real time    0.01
       DOS:  RMM-DIIS:  cpu time    1.07: real ti    CHARGE:  cpu time    0.41: real time    0.41
    MIXING:  cpu time    0.14: real time    0.14
    -------    CHARGE:  cpu time    0.42: real time    0.42
    MIXING:  cpu time    0.15: real time    0.15
    --------------------------------------------
      LOOP:  cpu time    5.24: real time    5.77

 eigenvalue-minimisations  :    14
 total energy-change (2. order) :-0.1935891E-03  (-0.3119367E-05)
 number of electron       9.9999942 magnetization
 augmentation part        0.6655310 magnetization

 Broyden mixing:
  rms(total) = 0.65653E-03    rms(broyden)= 0.65629E-03
  rms(prec     MIXING:  cpu time    0.14: real time    0.14
    --------------------------------------------
      LOOP:  cpu time    5.11: real time    5.16

 eigenvalue-minimisa    CHARGE:  cpu time    0.40: real time    0.40
    MIXING:  cpu time    0.17: real time    0.17
    --------------------------------------------
      LOOP:  cpu time    5.19: real time    5.21

 eigenvalue-minimisations  :    14
 total energy-change (2. order) :-0.1935891E-03  (-0.3119367E-05)
 number of electron       9.9999942 magnetization
 augmentation part        0.6655310 magnetization

 Broyden mixing:
  rms(total) = 0    CHARGE:  cpu time    0.40: real time    0.40
    MIXING:  cpu time    0.15: real time    0.15
    --------------------------------------------
      LOOP:  cpu time    5.31: real time    5.33

 eigenvalue-minimisations  :    14
 total energy-change (2. order) :-    MIXING:  cpu time    0.16: real time    0.15
    --------------------------------------------
      LOOP:  cpu time    5.28: real time    5.31

 eigenvalue-minimisations  :    14
 total energy-change (2. order) :-0.1935891E-03  (-0.3119367E-05)
 number of electron       9.9999942 magnetization
 augmentation part        0.6655310 magnetization

 Broyden mixing:
  rms(total) = 0.65653E-03    rms(broyden)= 0.65629E-03
  rms(pre    MIXING:  cpu time    0.16: real time    0.16
    ----
 eigenvalues of (default mixing * dielectric matrix)
  average eigenvalue GAMMA=   1.5568
  2.6088  1.8608  1.8608  0.8329  1.0885  1.0885

 Free energy of the    MIXING:  cpu time  RMM-DIIS:  cpu time    1.20: real time    1.20
    ORTHCH:  cpu time    0.01: real time    0.01
       DOS:  cpu time    0.00: real time    0.00
    CHARGE:  cpu time    0.41: real time    0.40
    MIXING:  cpu time    0.13: real time    0.14
    --------------------------------------------
      LOOP:  cpu time    5.22: real time    5.23

 eigenvalue-minimisations  :    14
 total energy-change (2. order) :-    MIXING:  cpu time    0.14: real time    0.14
    --------------------------------------------
      LOOP:  cpu time    5.24: real time    5.56

 eigenvalue-minimisations  :    14
 total energy-change (2. order) :-0.1935891E-03  (-0.3119367E-05)
 number of electron       9.9999942 magnetization
 augmentation part        0.6655310 magnetization

 Broyden mixing:
  rms(total) = 0.65653E-03    rms(broyden)= 0.65629E-03
  rms(pre    MIXING:  cpu time    0.13: real time    0.13
    --------------------------------------------
      LOOP:  cpu time    5.21: real time    5.47

 eigenvalue-minimisations  :    14
 total energy-change (2. order) :-0.1935891E-03  (-0.3119367E-05)
 number of electron       9.9999942 magnetization
 augmentation part        0.6655310 magnetization

 Broyden mixing:
  rms(total) = 0.65653E-03    rms(broyden)= 0.65629E-03
  rms(prec ) = 0.10546E-02
  weight for this iteration     100.00

 eigenvalues of (default mixing * dielectric matrix)
  average eigenvalue GAMMA=   1.5568
  2.6088  1.8608  1.8608  0.8329  1.0885  1.0885

 Free energy of the ion-electron system (eV)
  -----------------------------
 eigenvalues of (default mixing * dielectric matrix)
  average eigenvalue GAMMA=   1.5568
  2.6088  1.8608  1.    CHARGE:  cpu time    0.29: real time    0.30
    MIXING:  cpu time    0.17: real time    0.17
    --------------------------------------------
      LOOP:  cpu time    5.31: real time    5.69

 eigenvalue-minimisa    CHARGE:  cpu time    0.43: real time    0.43
    MIXING:  cpu time  RMM-DIIS:  cpu time    0.94: real time    0.95
    ORTHCH:  cpu time    0.01: real time    0.01
       DOS:  cpu time    0.00: real time    0.00
    CHARGE:  cpu time    0.39: real time    0.39
    MIXING:  cpu time    0.16: real time    0.15
    --------------------------------------------
      LOOP:  cpu time    5.00: real time    5.18

 eigenvalue-minimisations  :    13
 total energy-change (2. order) :-    MIXING:  cpu time  RMM-DIIS:  cpu time    1.10: real time    1.10
    ORTHCH:  cpu time    0.01: real time    0.01
       DOS:  cpu time    0.00: real time    0.00
    CHARGE:  cpu time    0.38: real time    0.39
    MIXING:  cpu time    0.17: real time    0.17
    --------------------------------------------
      LOOP:  cpu time    4.98: real time    5.01

 eigenvalue-minimisations  :    13
 total energy-change (2. order) :-    MIXING:  cpu time    0.18: real time    0.18
    --------------------------------------------
      LOOP:  cpu time    4.96: real time    4.97

 eigenvalue-minimisations  :    13
 total energy-change (2. order) :-    MIXING:  cpu time    0.17: real time    0.17
    --------------------------------------------
      LOOP:  cpu time    4.95: real time    4.96

 eigenvalue-minimisations  :    13
 total energy-change (2. order) :-0.8930071E-04  (-0.1190416E-05)
 number of electron       9.9999942 magnetization
 augmentation part        0.6655103 magnetization

 Broyden mixing:
  rms(total) = 0    CHARGE:  cpu time    0.40: real time    0.40
    MIXING:  cpu time    0.15: real time    0.15
    --------------------------------------------
      LOOP:  cpu time    4.98: real time    5.00

 eigenvalue-minimisations  :    13
 total energy-change (2. order) :-    MIXING:  cpu time    0.15: real time    0.15
    --------------------------------------------
      LOOP:  cpu time    5.00: real time    5.01

 eigenvalue-minimisa    CHARGE:  cpu time    0.36: real time    0.36
    MIXING:  cpu time    0.14: real time    0.14
    --------------------------------------------
      LOOP:  cpu time    4.99: real time    5.01

 eigenvalue-minimisations  :    13
 total energy-change (2. order) :-0.8930071E-04  (-0.1190416E-05)
 number of electron       9.9999942 magnetization
 augmentation part        0.6655103 magnetization

 Broyden mixing:
  rms(total) = 0.50215E-03    rms(broyden)= 0.50200E-03
  rms(pre    MIXING:  cpu time    0.13: real time    0.14
    --------------------------------------------
      LOOP:  cpu time    4.97: real time    4.98

 eigenvalue-minimisa    CHARGE:  cpu time    0.39: real time    0.40
    MIXING:  cpu time    0.15: real time    0.15
    --------------------------------------------
      LOOP:  cpu time    5.04: real time    5.06

 eigenvalue-minimisations  :    13
 total energy-change (2. order) :-    MIXING:  cpu time    0.16: real time    0.16
    --------------------------------------------
      LOOP:  cpu time    5.05: real time    5.07

 eigenvalue-minimisations  :    13
 total energy-change (2. order) :-0.8930071E-04  (-0.1190416E-05)
 number of electron       9.9999942 magnetization
 augmentation part            MIXING:  cpu time  RMM-DIIS:  cpu time    1.03: real time    1.03
    ORTHCH:  cpu time    0.00: real time    0.01
       DOS:  cpu time    0.00: real time    0.00
    CHARGE:  cpu time    0.38: real time    0.38
    MIXING:  cpu time    0.16: real time    0.16
    --------------------------------------------
      LOOP:  cpu time    5.03: real time    5.39

 eigenvalue-minimisations  :    13
 total energy-change (2. order) :-    MIXING:  cpu time    0.14: real time    0.15
    -------    CHARGE:  cpu time    0.34: real time    0.34
    MIXING:  cpu time    0.17: real time    0.17
    --------------------------------------------
      LOOP:  cpu time    5.21: real time    5.42

 eigenvalue-minimisations  :    13
 total energy-change (2. order) :-    MIXING:  cpu time    0.16: real time    0.17
    --------------------------------------------
      LOOP    MIXING:  cpu time    0.16: real time    0.16
    --------------------------------------------
      LOOP:  cpu time    5.24: real time    5.28

 eigenvalue-minimi
 eigenvalues of (default mixing * dielectric matrix)
  average eigenvalue GAMMA=   1.9709
  4.4809  2.4520  2.2120  1.6660  0.8384  1.1516  0.9953

 Free energ    MIXING:  cpu time  RMM-DIIS:  cpu time    1.02: real time    1.02
    ORTHCH:  cpu time    0.01: real time    0.01
       DOS:  cpu time    0.00: real time    0.00
    CHARGE:  cpu time    0.42: real time    0.42
    MIXING:  cpu time  RMM-DIIS:  cpu time    1.02: real time    1.02
    ORTHCH:  cpu time    0.01: real time    0.01
       DOS:  cpu time    0.00: real time    0.00
    CHARGE:  cpu time    0.39: real time    0.39
    MIXING:  cpu time    0.18: real time    0.18
    --------------------------------------------
      LOOP:  cpu time    5.07: real time    5.10

 eigenvalue-minimisations  :    14
 total energy-change (2. order) :-    MIXING:  cpu time  RMM-DIIS:  cpu time    0.78: real time    0.77
    ORTHCH:  cpu time    0.00: real time    0.01
       DOS:  cpu time    0.00: real time    0.00
    CHARGE:  cpu time    0.40: real time    0.41
    MIXING:  cpu time    0.18: real time    0.17
    --------------------------------------------
      LOOP:  cpu time    4.95: real time    4.97

 eigenvalue-minimisations  :    14
 total energy-change (2. order) :-    MIXING:  cpu time    0.17: real time    0.17
    --------------------------------------------
      LOOP:  cpu time    5.05: real time    5.06

 eigenvalue-minimisations  :    14
 total energy-change (2. order) :-    MIXING:  cpu time    0.17: real time    0.17
    --------------------------------------------
      LOOP:  cpu time    5.03: real time    5.04

 eigenvalue-minimisations  :    14
 total energy-change (2. order) :-    MIXING:  cpu time    0.17: real time    0.17
    --------------------------------------------
      LOOP:  cpu time    5.03: real time    5.05

 eigenvalue-minimisa    CHARGE:  cpu time    0.40: real time    0.39
    MIXING:  cpu time    0.17: real time    0.17
    --------------------------------------------
      LOOP:  cpu time    5.05: real time    5.06

 eigenvalue-minimisations  :    14
 total energy-change (2. order) :-    MIXING:  cpu time    0.16: real time    0.15
    --------------------------------------------
      LOOP:  cpu time    5.06: real time    5.08

 eigenvalue-minimisations  :    14
 total energy-change (2. order) :-    MIXING:  cpu time    0.16: real time    0.17
    --------------------------------------------
      LOOP:  cpu time    4.92: real time    4.94

 eigenvalue-minimisations  :    14
 total energy-change (2. order) :-    MIXING:  cpu time    0.15: real time    0.15
    --------------------------------------------
      LOOP:  cpu time    5.05: real time    5.08

 eigenvalue-minimisations  :    14
 total energy-change (2. order) :-    MIXING:  cpu time    0.15: real time    0.15
    --------------------------------------------
      LOOP:  cpu time    5.07: real time    5.09

 eigenvalue-minimisa    CHARGE:  cpu time    0.33: real time    0.34
    MIXING:  cpu time    0.16: real time    0.16
    --------------------------------------------
      LOOP:  cpu time    5.05: real time    5.07

 eigenvalue-minimisations  :    14
 total energy-change (2. order) :-    MIXING:  cpu time    0.16: real time    0.17
    --------------------------------------------
      LOOP:  cpu time    5.09: real time    5.10

 eigenvalue-minimisations  :    14
 total energy-change (2. order) :-    MIXING:  cpu time    0.18: real time    0.18
    --------------------------------------------
      LOOP:  cpu time    5.11: real time    5.12

 eigenvalue-minimisations  :    14
 total energy-change (2. order) :-0.1554091E-03  (-0.21  RMM-DIIS:  cpu time    1.07: real time    1.07
    ORTHCH:  cpu time    0.01: real time    0.01
       DOS:  cpu time    0.00: real time    0.00
    CHARGE:  cpu time    0.37: real time    0.37
    MIXING:  cpu time    0.17: real time    0.16
    --------------------------------------------
      LOOP:  cpu time    4.93: real time    4.94

 eigenvalue-minimisa    CHARGE:  cpu time    0.38: real time    0.38
    MIXING:  cpu time  RMM-DIIS:  cpu time    0.97: real time    0.96
    ORTHCH:  cpu time    0.00: real time    0.01
       DOS:  cpu time    0.01: real time    0.00
    CHARGE:  cpu time    0.37: real time    0.37
    MIXING:  cpu time    0.16: real time    0.16
    --------------------------------------------
      LOOP:  cpu time    5.34: real time    5.44

 eigenvalue-minimisations  :    14
 total energy-change (2. order) :-0.1554091E-03  (-0.2184793E-05)
 number of electron       9.9999942 magnetization
 augmentation part            MIXING:  cpu time    0.17: real time    0.18
    --------------------------------------------
      LOOP:  cpu time    5.35: real time    5.43

 eigenvalue-minimisations  :    14
 total energy-change (2. order) :-    MIXING:  cpu time  RMM-DIIS:  cpu time    1.16: real time    1.17
    ORTHCH:  cpu time    0.01: real time    0.01
       DOS:  cpu time    0.00: real time    0.00
    CHARGE:  cpu time    0.37: real time    0.37
    MIXING:  cpu time    0.17: real time    0.17
    --------------------------------------------
      LOOP:  cpu time    5.45: real time    5.47

 eigenvalue-minimisa    CHARGE:  cpu time    0.37: real time    0.37
    MIXING:  cpu time    0.18: real time    0.19
    --------------------------------------------
      LOOP:  cpu time    5.01: real time    5.05

 eigenvalue-minimisations  :    13
 total energy-change (2. order) :-    MIXING:  cpu time  RMM-DIIS:  cpu time    0.83: real time    0.82
    ORTHCH:  cpu time    0.00: real time    0.01
       DOS:  cpu time    0.00: real time    0.00
    CHARGE:  cpu time    0.29: real time    0.28
    MIXING:  cpu time    0.20: real time    0.20
    --------------------------------------------
      LOOP:  cpu time    4.94: real time    4.96

 eigenvalue-minimisations  :    13
 total energy-change (2. order) :-    MIXING:  cpu time    0.19: real time    0.18
    --------------------------------------------
      LOOP:  cpu time    4.98: real time    5.00

 eigenvalue-minimisations  :    13
 total energy-change (2. order) :-    MIXING:  cpu time    0.20: real time    0.19
    --------------------------------------------
      LOOP:  cpu time    5.04: real time    5.07

 eigenvalue-minimisations  :    13
 total energy-change (2. order) :-    MIXING:  cpu time    0.19: real time    0.19
    --------------------------------------------
      LOOP:  cpu time    5.02: real time    5.05

 eigenvalue-minimisa    CHARGE:  cpu time    0.41: real time    0.41
    MIXING:  cpu time    0.17: real time    0.17
    --------------------------------------------
      LOOP:  cpu time    5.00: real time    5.02

 eigenvalue-minimisations  :    13
 total energy-change (2. order) :-    MIXING:  cpu time    0.16: real time    0.16
    --------------------------------------------
      LOOP:  cpu time    5.00: real time    5.02

 eigenvalue-minimisations  :    13
 total energy-change (2. order) :-    MIXING:  cpu time    0.17: real time    0.18
    --------------------------------------------
      LOOP:  cpu time    4.99: real time    5.00

 eigenvalue-minimisa    CHARGE:  cpu time    0.35: real time    0.36
    MIXING:  cpu time    0.16: real time    0.16
    --------------------------------------------
      LOOP:  cpu time    5.01: real time    5.03

 eigenvalue-minimisations  :    13
 total energy-change (2. order) :-    MIXING:  cpu time    0.16: real time    0.16
    --------------------------------------------
      LOOP:  cpu time    5.00: real time    5.02

 eigenvalue-minimisations  :    13
 total energy-change (2. order) :-    MIXING:  cpu time    0.16: real time    0.15
    --------------------------------------------
      LOOP:  cpu time    4.95: real time    4.96

 eigenvalue-minimisations  :    13
 total energy-change (2. order) :-    MIXING:  cpu time    0.19: real time    0.18
    --------------------------------------------
      LOOP:  cpu time    4.90: real time    4.92

 eigenvalue-minimisations  :    13
 total energy-change (2. order) :-    MIXING:  cpu time    0.19: real time    0.19
    --------------------------------------------
      LOOP:  cpu time    4.98: real time    5.02

 eigenvalue-minimisations  :    13
 total energy-change (2. order) :-    MIXING:  cpu time  RMM-DIIS:  cpu time    1.02: real time    1.02
    ORTHCH:  cpu time    0.01: real time    0.01
       DOS:  cpu time    0.00: real time    0.00
    CHARGE:  cpu time    0.35: real time    0.35
    MIXING:  cpu time    0.17: real time    0.16
    --------------------------------------------
      LOOP:  cpu time    5.03: real time    5.05

 eigenvalue-minimisa    CHARGE:  cpu time    0.36: real time    0.36
    MIXING:  cpu time  RMM-DIIS:  cpu time    0.98: real time    0.99
    ORTHCH:  cpu time    0.01: real time    0.01
       DOS:  cpu time    0.00: real time    0.00
    CHARGE:  cpu time    0.41: real time    0.41
    MIXING:  cpu time    0.20: real time    0.20
    --------------------------------------------
      LOOP:  cpu time    5.18: real time    5.20

 eigenvalue-minimisations  :    13
 total energy-change (2. order) :-    MIXING:  cpu time    0.17: real time    0.17
    --------------------------------------------
      LOOP:  cpu time    5.21: real time    5.23

 eigenvalue-minimisations  :    13
 total energy-change (2. order) :-    MIXING:  cpu time    0.16: real time    0.17
    --------------------------------------------
      LOOP:     MIXING:  cpu time    0.17: real time    0.18
    --------------------------------------------
      LOOP:  cpu time    5.32: real time    5.38

 eigenvalue-minimisations  :    13
 total energy-change (2. order) :-0.4687172E-04  (-0.4751841E-06)
 number of electron       9.9999942 magnetization
 augmentation part        0.6655161 magnetiza  RMM-DIIS:  cpu time    1.05: real time    1.05
    ORTHCH:  cpu time    0.01: real time    0.01
       DOS:  cpu time    0.00: real time    0.00
    CHARGE:  cpu time    0.44: real time    0.45
    MIXING:  cpu time    0.17: real time    0.17
    --------------------------------------------
      LOOP:  cpu time    5.56: real time    5.57

 eigenvalue-minimisations  :    13
 total energy-change (2. order) :-0.4687172E-04  (-0.4751841E-06)
 number of electron       9.9999942 magnetization
 augmentation part        0.6655161 magnetization

 Broyden mixing:
  rms(total) = 0.19781E-03    rms(broyden)= 0.19767E-03
  rms(prec ) = 0.27373E-03
  w  RMM-DIIS:  cpu time    1.01: real time    1.01
    ORTHCH:  cpu time    0.00: real time    0.01
       DOS:  cpu time    0.00: real time    0.00
    CHARGE:  cpu time    0.23: real time    0.23
    MIXING:  cpu time    0.16: real time    0.16
    --------------------------------------------
      LOOP:  cpu time    4.98: real time    4.99

 eigenvalue-minimisations  :    12
 total energy-change (2. order) :-0.5431145E-04  (-0.5066641E-06)
 number of electron       9.9999942 magnetization
 augmentation part        0.6655169 magnetization

 Broyden mixing:
  rms(total) = 0.15857E-03    rms(broyden)= 0.15855E-03
  rms(pre    MIXING:  cpu time    0.20: real time    0.20
    --------------------------------------------
      LOOP:  cpu time    4.91: real time    4.94

 eigenvalue-minimisations  :    12
 total energy-change (2. order) :-0.5431145E-04  (-0.5066641E-06)
 number of electron       9.9999942 magnetization
 augmentation part        0.6655169 magnetization

 Broyden mixing:
  rms(total) = 0    CHARGE:  cpu time    0.39: real time    0.39
    MIXING:  cpu time    0.20: real time    0.20
    --------------------------------------------
      LOOP:  cpu time    4.97: real time    4.99

 eigenvalue-minimisations  :    12
 total energy-change (2. order) :-    MIXING:  cpu time    0.18: real time    0.18
    --------------------------------------------
      LOOP:  cpu time    4.96: real time    4.98

 eigenvalue-minimisations  :    12
 total energy-change (2. order) :-0.5431145E-04  (-0.5066641E-06)
 number of electron       9.9999942 magnetization
 augmentation part        0.6655169 magnetization

 Broyden mixing:
  rms(total) = 0.15857E-03    rms(broyden)= 0.15855E-03
  rms(pre    MIXING:  cpu time    0.17: real time    0.17
    --------------------------------------------
      LOOP:  cpu time    4.92: real time    4.94

 eigenvalue-minimisations  :    12
 total energy-change (2. order) :-    MIXING:  cpu time    0.16: real time    0.17
    --------------------------------------------
      LOOP:  cpu time    4.90: real time    4.98

 eigenvalue-minimisations  :    12
 total energy-change (2. order) :-    MIXING:  cpu time    0.16: real time    0.16
    --------------------------------------------
      LOOP:  cpu time    4.92: real time    4.94

 eigenvalue-minimisations  :    12
 total energy-change (2. order) :-    MIXING:  cpu time    0.16: real time    0.16
    --------------------------------------------
      LOOP:  cpu time    4.97: real time    4.98

 eigenvalue-minimisations  :    12
 total energy-change (2. order) :-    MIXING:  cpu time    0.19: real time    0.19
    --------------------------------------------
      LOOP:  cpu time    4.94: real time    4.99

 eigenvalue-minimisations  :    12
 total energy-change (2. order) :-    MIXING:  cpu time  RMM-DIIS:  cpu time    0.92: real time    0.92
    ORTHCH:  cpu time    0.00: real time    0.01
       DOS:  cpu time    0.00: real time    0.00
    CHARGE:  cpu time    0.38: real time    0.38
    MIXING:  cpu time    0.17: real time    0.16
    --------------------------------------------
      LOOP:  cpu time    5.03: real time    5.04

 eigenvalue-minimisations  :    12
 total energy-change (2. order) :-    MIXING:  cpu time  RMM-DIIS:  cpu time    0.97: real time    0.97
    ORTHCH:  cpu time    0.01: real time    0.01
       DOS:  cpu time    0.00: real time    0.00
    CHARGE:  cpu time    0.40: real time    0.41
    MIXING:  cpu time    0.19: real time    0.18
    --------------------------------------------
      LOOP:  cpu time    5.03: real time    5.04

 eigenvalue-minimisations  :    12
 total energy-change (2. order) :-    MIXING:  cpu time    0.19: real time    0.19
    --------------------------------------------
      LOOP:  cpu time    5.06: real time    5.07

 eigenvalue-minimisa    CHARGE:  cpu time    0.37: real time    0.37
    MIXING:  cpu time    0.16: real time    0.17
    --------------------------------------------
      LOOP:  cpu time    5.13: real time    5.15

 eigenvalue-minimisations  :    12
 total energy-change (2. order) :-    MIXING:  cpu time    0.18: real time    0.18
    --------------------------------------------
      LOOP:  cpu time    5.14: real time    5.15

 eigenvalue-minimisations  :    12
 total energy-change (2. order) :-    MIXING:  cpu time    0.18: real time    0.18
    --------------------------------------------
      LOOP:  cpu time    5.15: real time    5.17

 eigenvalue-minimisa    CHARGE:  cpu time    0.39: real time    0.39
    MIXING:  cpu time    0.19: real time    0.19
    --------------------------------------------
      LOOP:  cpu time    5.35: real time    5.37

 eigenvalue-minimisa    CHARGE:  cpu time    0.39: real time    0.38
    MIXING:  cpu time    0.20: real time    0.20
    --------------------------------------------
      LOOP:  cpu time    4.98: real time    5.06

 eigenvalue-minimisations  :    12
 total energy-change (2. order) :-0.1868662E-04  (-0.15  RMM-DIIS:  cpu time    1.03: real time    1.04
    ORTHCH:  cpu time    0.00: real time    0.01
       DOS:  cpu time    0.00: real time    0.00
    CHARGE:  cpu time    0.40: real time    0.41
    MIXING:  cpu time    0.15: real time    0.15
    --------------------------------------------
      LOOP:  cpu time    5.30: real time    5.32

 eigenvalue-minimisations  :    12
 total energy-change (2. order) :-0.5431145E-04  (-0.5066641E-06)
 number of electron       9.9999942 magnetization
 augmentation part        0.6655169 magnetization

 Broyden mixing:
  rms(total) = 0    CHARGE:  cpu time    0.28: real time    0.28
    MIXING:  cpu time    0.17: real time    0.17
    --------------------------------------------
      LOOP:  cpu time    5.01: real time    5.08

 eigenvalue-minimisations  :    12
 total energy-change (2. order) :-0.1868662E-04  (-0.1585424E-06)
 number of electron       9.9999942 magnetization
 augmentation part        0.6655346 magnetization

 Broyden mixing:
  rms(total) = 0.66956E-04    rms(broyden)= 0.66842E-04
  rms(pre    MIXING:  cpu time    0.22: real time    0.22
    --------------------------------------------
      LOOP:  cpu time    4.92: real time    4.95

 eigenvalue-minimisations  :    12
 total energy-change (2. order) :-    MIXING:  cpu time    0.20: real time    0.20
    --------------------------------------------
      LOOP:  cpu time    4.93: real time    4.95

 eigenvalue-minimisations  :    12
 total energy-change (2. order) :-    MIXING:  cpu time    0.21: real time    0.20
    --------------------------------------------
      LOOP:  cpu time    4.93: real time    4.94

 eigenvalue-minimisations  :    12
 total energy-change (2. order) :-    MIXING:  cpu time    0.21: real time    0.21
    --------------------------------------------
      LOOP:  cpu time    4.94: real time    4.96

 eigenvalue-minimisations  :    12
 total energy-change (2. order) :-    MIXING:  cpu time    0.18: real time    0.17
    --------------------------------------------
      LOOP:  cpu time    4.93: real time    4.95

 eigenvalue-minimisations  :    12
 total energy-change (2. order) :-    MIXING:  cpu time    0.19: real time    0.19
    --------------------------------------------
      LOOP:  cpu time    4.94: real time    4.97

 eigenvalue-minimisations  :    12
 total energy-change (2. order) :-    MIXING:  cpu time    0.18: real time    0.18
    --------------------------------------------
      LOOP:  cpu time    4.93: real time    4.97

 eigenvalue-minimisations  :    12
 total energy-change (2. order) :-    MIXING:  cpu time    0.20: real time    0.19
    --------------------------------------------
      LOOP:  cpu time    4.94: real time    4.96

 eigenvalue-minimisations  :    12
 total energy-change (2. order) :-    MIXING:  cpu time    0.19: real time    0.19
    --------------------------------------------
      LOOP:  cpu time    4.94: real time    4.98

 eigenvalue-minimisations  :    12
 total energy-change (2. order) :-    MIXING:  cpu time  RMM-DIIS:  cpu time    0.91: real time    0.92
    ORTHCH:  cpu time    0.01: real time    0.01
       DOS:  cpu time    0.00: real time    0.00
    CHARGE:  cpu time    0.38: real time    0.38
    MIXING:  cpu time    0.18: real time    0.18
    --------------------------------------------
      LOOP:  cpu time    5.00: real time    5.01

 eigenvalue-minimisations  :    12
 total energy-change (2. order) :-    MIXING:  cpu time  RMM-DIIS:  cpu time    0.95: real time    0.95
    ORTHCH:  cpu time    0.01: real time    0.01
       DOS:  cpu time    0.00: real time    0.00
    CHARGE:  cpu time    0.40: real time    0.40
    MIXING:  cpu time    0.19: real time    0.19
    --------------------------------------------
      LOOP:  cpu time    4.95: real time    4.97

 eigenvalue-minimisations  :    12
 total energy-change (2. order) :-    MIXING:  cpu time    0.19: real time    0.19
    --------------------------------------------
      LOOP:  cpu time    5.00: real time    5.01

 eigenvalue-minimisa    CHARGE:  cpu time    0.37: real time    0.37
    MIXING:  cpu time    0.19: real time    0.19
    --------------------------------------------
      LOOP:  cpu time    5.09: real time    5.11

 eigenvalue-minimisations  :    12
 total energy-change (2. order) :-    MIXING:  cpu time    0.18: real time    0.19
    --------------------------------------------
      LOOP:  cpu time    5.07: real time    5.10

 eigenvalue-minimisations  :    12
 total energy-change (2. order) :-    MIXING:  cpu time    0.18: real time    0.18
    --------------------------------------------
      LOOP:  cpu time    5.06: real time    5.14

 eigenvalue-minimisa    CHARGE:  cpu time    0.41: real time    0.41
    MIXING:  cpu time    0.19: real time    0.19
    --------------------------------------------
      LOOP:  cpu time    5.33: real time    5.36

 eigenvalue-minimisations  :    12
 total energy-change (2. order) :-0.1868662E-04  (-0.1585424E-06)
 number of electron       9.9999942 magnetization
 augmentation part        0.6655346 magnetization

 Broyden mixing:
  rms(total) = 0.66956E-04    rms(broyden)= 0.66842E-04
  rms(prec ) = 0.85338E-04
  weight for this iteration     100.00

 eigenvalues of (default mixing * dielectric matrix)
  average eigenvalue GAMMA=   2.3134
  7.7913  4.3561  2.5791  2.1227  2.1227  1.3834  1.3834  0.9893  0.9893  0.8412
  0.8891
  RMM-DIIS:  cpu time    1.05: real time    1.04
    ORTHCH:  cpu time    0.00: real time    0.01
       DOS:  cpu time    0.00: real time    0.00
    CHARGE:  cpu time    0.34: real time    0.34
    MIXING:  cpu time    0.18: real time    0.18
    --------------------------------------------
      LOOP:  cpu time    5.20: real time    5.23

 eigenvalue-minimisations  :    12
 total energy-change (2. order) :-0.1868662E-04  (-0.1585424E-06)
 number of electron       9.9999942 magnetization
 augmentation part        0.6655346 magnetization

 Broyden mixing:
  rms(total) = 0.66956E-04    rms(broyden)= 0.66842E-04
  rms(prec ) = 0.85338E-04
  weight for this iteration     100.00

 eigenvalues of (default mixing * dielectric matrix)
  average eigenvalue GAMMA=   2.3134
  7.7913  4.3561  2.5791  2.1227  2.1227  1.3834  1.3834  0.9893  0.9893  0.8412
  0.8891

 Free energy of the ion-electron system (eV)
  ---------------------------------------------------
  alpha Z        PSCENC =         0.12946890
  Ewald energy   TEWEN  =       172.64985029
  -Hartree energ DENC   =      -652.12868288
  -exchange      EXHF   =         0.00000000
  -V(xc)+E(xc)   XCENC  =        40.59294382
  PAW double counting   =       904.16670854     -906.65532034
  entropy T*S    EENTRO =         0.01159581
  eigenvalues    EBANDS =      -152.91018004
  atomic energy  EATOM  =       579.39041991
  ---------------------------------------------------
  free energy    TOTEN  =       -14.75319598 eV

  energy without entropy =      -14.76479179  energy(sigma->0) =      -14.75706125
H:  cpu time    0.01: real time    0.01
       DOS:  cpu time    0.00: real time    0.00
    --------------------------------------------
      LOOP:  cpu time  RMM-DIIS:  cpu time    0.84: real time    0.84
    ORTHCH:  cpu time    0.00: real time    0.01
       DOS:  cpu time    0.00: real time    0.00
    --------------------------------------------
      LOOP:  cpu time  RMM-DIIS:  cpu time    0.85: real time    0.85
    ORTHCH:  cpu time    0.01: real time    0.01
       DOS:  cpu time    0.00: real time    0.00
    --------------------------------------------
      LOOP:  cpu time  RMM-DIIS:  cpu time    0.79: real time    0.79
    ORTHCH:  cpu time    0.01: real time    0.01
       DOS:  cpu time    0.00: real time    0.00
    --------------------------------------------
      LOOP:  cpu time  RMM-DIIS:  cpu time    0.81: real time    0.82
    ORTHCH:  cpu time    0.01: real time    0.01
       DOS:  cpu time    0.00: real time    0.00
    --------------------------------------------
      LOOP:  cpu time  RMM-DIIS:  cpu time    0.74: real time    0.74
    ORTHCH:  cpu time    POTLOK:  cpu time    3.17: real time    3.17
    SETDIJ:  cpu time    0.01: real time    0.00
    EDDIAG:  cpu time    0.29: real time    0.29
[...]
             X         Y         Z           dx          dy          dz
      0.000000  0.000000  0.000000     0.000106    0.656762    0.005905
      0.000000  0.000000  1.120000     0.000121    0.754044    0.006809

   4 f/i=    0.022512 THz     0.141448 2PiTHz    0.750925 cm-1     0.093103 meV
             X         Y         Z           dx          dy          dz
      0.000000  0.000000  0.000000    -0.004465   -0.005919    0.654537
      0.000000  0.000000  1.120000    -0.005110   -0.006795    0.755945

   5 f/i=    9.611099 THz    60.388315 2PiTHz  320.591740 cm-1    39.748324 meV
             X         Y         Z           dx          dy          dz
      0.000000  0.000000  0.000000    -0.000001   -0.754074   -0.000002
      0.000000  0.000000  1.120000     0.000001    0.656789    0.000002

   6 f/i=    9.631888 THz    60.518935 2PiTHz  321.285179 cm-1    39.834300 meV
             X         Y         Z           dx          dy          dz
      0.000000  0.000000  0.000000     0.753032   -0.000001   -0.000020
      0.000000  0.000000  1.120000    -0.657984    0.000001    0.000018

 Finite differences POTIM=  1.500000000000000E-002
  LATTYP: Found a simple cubic cell.
 ALAT    writing wavefunctions
     LOOP+:  cpu time   58.33: real time   60.81
  0.0000000000,   0.0000000000)
 A2 = (   0.0000000000,  15.0000000000,   0.0000000000)
 A3 = (   0.0000000000,   0.0000000000,  15.0000000000)


Analysis of symmetry for initial positions (statically):
=====================================================================
 Subroutine PRICEL returns:
 Original cell was already a primitive cell.


 Routine SETGRP: Setting up the symmetry group for a
 simple cubic supercell.


 Subroutine GETGRP returns: Found  8 space group operations
 (whereof  8 operations were pure point group operations)
 out of a pool of 48 trial point group operations.


    FORCOR:  cpu time    2.29: real time    2.29
    FORHAR:  cpu time    0.64: real time    0.64
    MIXING:  cpu time    0.11: real time    0.11
    OFIELD:  cpu time    0.00: real time    0.00

 VOLUME and BASIS-vectors are now :
 -----------------------------------------------------------------------------
  energy-cutoff  :      400.00
  volume of cell :     3375.00
      direct lattice vectors                 reciprocal lattice vectors
    15.000000000  0.000000000  0.000000000     0.066666667  0.000000000  0.000000000
     0.000000000 15.000000000  0.000000000     0.000000000  0.066666667  0.000000000
     0.000000000  0.000000000 15.000000000     0.000000000  0.000000000  0.066666667

  length of vectors
    15.000000000 15.000000000 15.000000000     0.066666667  0.066666667  0.066666667


 FORCES acting on ions
    electron-ion (+dipol)            ewald-force                    non-local-force                 convergence-correction
 -----------------------------------------------------------------------------------------------
   0.194E-14 -.689E-14 0.249E+03   0.730E-17 0.964E-17 -.283E+03   0.000E+00 0.159E-21 0.281E+02   0.429E-06 0.317E-05 0.132E-02
   -.671E-15 -.119E-14 -.215E+03   -.182E-16 -.845E-17 0.283E+03   0.000E+00 0.993E-22 -.623E+02   0.472E-06 0.187E-04 0.171E-03
 -----------------------------------------------------------------------------------------------
   0.127E-14 -.808E-14 0.342E+02   -.109E-16 0.119E-17 0.000E+00   0.000E+00 0.258E-21 -.342E+02   0.901E-06 0.219E-04 0.149E-02


 POSITION                                       TOTAL-FORCE (eV/Angst)
 -----------------------------------------------------------------------------------
      0.00000      0.00000      0.00000         0.000000      0.000000     -5.043007
      0.00000      0.00000      1.10500         0.000000     -0.000000      5.043007
 -----------------------------------------------------------------------------------
    total drift:                                0.000001      0.000022     -0.010094


--------------------------------------------------------------------------------------------------------



  FREE ENERGIE OF THE ION-ELECTRON SYSTEM (eV)
  ---------------------------------------------------
  free  energy   TOTEN  =       -14.69382493 eV

  energy  without entropy=      -14.70542074  energy(sigma->0) =      -14.69769020

 d Force =-0.9087359E-01[-0.151E+00,-0.305E-01]  d Energy =-0.8854885E-01-0.232E-02
 d Force =-0.8254982E+01[-0.848E+01,-0.803E+01]  d Ewald  =-0.8252016E+01-0.297E-02


--------------------------------------------------------------------------------------------------------


    POTLOK:  cpu time    1.90: real time    1.91


--------------------------------------------------------------------------------------------------------


 Finite differences progress:
  Degree of freedom:   6/  6
  Displacement:        2/  2
  Total:              12/ 12

 SECOND DERIVATIVES (NOT SYMMETRIZED)
 ------------------------------------
               1X          1Y          1Z          2X          2Y          2Z
  1X     2.585360    0.000000   -0.005136   -2.585360    0.000000    0.005136
  1Y     0.000000    2.581369    0.002178    0.000000   -2.581369   -0.002178
  1Z     0.000000    0.000000 -134.435823    0.000000   -0.000000  134.435823
  2X    -2.629436    0.000000    0.010246    2.629436    0.000000   -0.010246
  2Y     0.000000   -2.608630    0.001374    0.000000    2.608630   -0.001374
  2Z     0.000000   -0.000000  134.259172    0.000000    0.000000 -134.259172


 Eigenvectors and eigenvalues of the dynamical matrix
 ----------------------------------------------------


   1 f  =   69.183191 THz   434.690812 2PiTHz 2307.702794 cm-1   286.118784 meV
             X         Y         Z           dx          dy          dz
      0.000000  0.000000  0.000000     0.000014   -0.000006    0.755994
      0.000000  0.000000  1.120000    -0.000025   -0.000003   -0.654579

   2 f  =    0.040334 THz     0.253423 2PiTHz    1.345382 cm-1     0.166806 meV
             X         Y         Z           dx          dy          dz
      0.000000  0.000000  0.000000    -0.657969    0.000146   -0.004448
      0.000000  0.000000  1.120000    -0.753014    0.000167   -0.005123

   3 f  =    0.025000 THz     0.157083 2PiTHz    0.833926 cm-1     0.103394 meV
             X         Y         Z           dx          dy          dz
      0.000000  0.000000  0.000000     0.000106    0.656762    0.005905
      0.000000  0.000000  1.120000     0.000121    0.754044    0.006809

   4 f/i=    0.022512 THz     0.141448 2PiTHz    0.750925 cm-1     0.093103 meV
             X         Y         Z           dx          dy          dz
      0.000000  0.000000  0.000000    -0.004465   -0.005919    0.654537
      0.000000  0.000000  1.120000    -0.005110   -0.006795    0.755945

   5 f/i=    9.611099 THz    60.388315 2PiTHz  320.591740 cm-1    39.748324 meV
             X         Y         Z           dx          dy          dz
      0.000000  0.000000  0.000000    -0.000001   -0.754074   -0.000002
      0.000000  0.000000  1.120000     0.000001    0.656789    0.000002

   6 f/i=    9.631888 THz    60.518935 2PiTHz  321.285179 cm-1    39.834300 meV
             X         Y         Z           dx          dy          dz
      0.000000  0.000000  0.000000     0.753032   -0.000001   -0.000020
      0.000000  0.000000  1.120000    -0.657984    0.000001    0.000018

 Finite differences POTIM=  1.500000000000000E-002
  LATTYP: Found a simple cubic cell.
 ALAT       =    15.0000000000

  Lattice vectors:

 A1 = (  15.0000000000,   0.0000000000,   0.0000000000)
 A2 = (   0.0000000000,  15.0000000000,   0.0000000000)
 A3 = (   0.0000000000,   0.0000000000,  15.0000000000)


Analysis of symmetry for initial positions (statically):
=====================================================================
 Subroutine PRICEL returns:
 Original cell was already a primitive cell.


 Routine SETGRP: Setting up the symmetry group for a
 simple cubic supercell.


 Subroutine GETGRP returns: Found  8 space group operations
 (whereof  8 operations were pure point group operations)
 out of a pool of 48 trial point group operations.


The static configuration has the point symmetry C_4v.


Analysis of symmetry for dynamics (positions and initial velocities):
=====================================================================
 Subroutine PRICEL returns:
 Original cell was already a primitive cell.


 Routine SETGRP: Setting up the symmetry group for a
 simple cubic supercell.


 Subroutine GETGRP returns: Found  8 space group operations
 (whereof  8 operations were pure point group operations)
 out of a pool of 48 trial point group operations.


The dynamic configuration has the point symmetry C_4v.

 KPOINTS: Gamma point only
  k-points in reciprocal lattice
Space group operators:
 irot       det(A)        alpha          n_x          n_y          n_z        tau_x        tau_y        tau_z
    1     1.000000     0.000000     1.000000     0.000000     0.000000     0.000000     0.000000     0.000000
    2     1.000000    90.000000     0.000000     0.000000    -1.000000     0.000000     0.000000     0.000000
    3     1.000000   180.000000     0.000000     0.000000     1.000000     0.000000     0.000000     0.000000
    4     1.000000    90.000000     0.000000     0.000000     1.000000     0.000000     0.000000     0.000000
    5    -1.000000   180.000000     1.000000     0.000000     0.000000     0.000000     0.000000     0.000000
    6    -1.000000   180.000000     0.707107     0.707107     0.000000     0.000000     0.000000     0.000000
    7    -1.000000   180.000000     0.000000     1.000000     0.000000     0.000000     0.000000     0.000000
    8    -1.000000   180.000000     0.707107    -0.707107     0.000000     0.000000     0.000000     0.000000
 writing wavefunctions
     LOOP+:  cpu time   58.16: real time   60.11
0.000
  0.029   0.038   0.000  -4.551  -0.000  -0.000   8.891   0.000
 -0.000  -0.000   0.000  -0.000  -4.532  -0.000   0.000   8.869
  0.000   0.000   8.869  -0.000  -0.000 -19.506   0.000   0.000
 -0.096  -0.127  -0.000   8.891   0.000   0.000 -19.518  -0.000
  0.000   0.000  -0.000   0.000   8.869   0.000  -0.000 -19.506
 total augmentation occupancy for first ion, spin component:           1
  8.498  -4.003  -0.000   2.363   0.000  -0.000   0.421   0.000
 -4.003   2.269   0.000  -1.761   0.000  -0.000  -0.259   0.000
 -0.000   0.000   0.884   0.000   0.000   0.070   0.000  -0.000
  2.363  -1.761   0.000   2.375   0.000   0.000   0.228   0.000
  0.000   0.000   0.000   0.000   0.884   0.000   0.000   0.070
 -0.000  -0.000   0.070   0.000   0.000   0.006  -0.000   0.000
  0.421  -0.259   0.000   0.228   0.000  -0.000   0.031   0.000
  0.000   0.000  -0.000   0.000   0.070   0.000   0.000   0.006


------------------------ aborting loop because EDIFF is reached ----------------------------------------


    CHARGE:  cpu time    0.17: real time    0.18
    FORLOC:  cpu time    0.19: real time    0.19
    FORNL :  cpu time    0.07: real time    0.06
    FORCOR:  cpu time    2.14: real time    2.14
    FORHAR:  cpu time    0.68: real time    0.68
    MIXING:  cpu time    0.10: real time    0.10
    OFIELD:  cpu time    0.00: real time    0.00

 VOLUME and BASIS-vectors are now :
 -----------------------------------------------------------------------------
  energy-cutoff  :      400.00
  volume of cell :     3375.00
      direct lattice vectors                 reciprocal lattice vectors
    15.000000000  0.000000000  0.000000000     0.066666667  0.000000000  0.000000000
     0.000000000 15.000000000  0.000000000     0.000000000  0.066666667  0.000000000
     0.000000000  0.000000000 15.000000000     0.000000000  0.000000000  0.066666667

  length of vectors
    15.000000000 15.000000000 15.000000000     0.066666667  0.066666667  0.066666667


 FORCES acting on ions
    electron-ion (+dipol)            ewald-force                    non-local-force                 convergence-correction
 -----------------------------------------------------------------------------------------------
   0.194E-14 -.689E-14 0.249E+03   0.730E-17 0.964E-17 -.283E+03   0.000E+00 0.159E-21 0.281E+02   0.429E-06 0.317E-05 0.132E-02
   -.671E-15 -.119E-14 -.215E+03   -.182E-16 -.845E-17 0.283E+03   0.000E+00 0.993E-22 -.623E+02   0.472E-06 0.187E-04 0.171E-03
 -----------------------------------------------------------------------------------------------
   0.127E-14 -.808E-14 0.342E+02   -.109E-16 0.119E-17 0.000E+00   0.000E+00 0.258E-21 -.342E+02   0.901E-06 0.219E-04 0.149E-02


 POSITION                                       TOTAL-FORCE (eV/Angst)
 -----------------------------------------------------------------------------------
      0.00000      0.00000      0.00000         0.000000      0.000000     -5.043007
      0.00000      0.00000      1.10500         0.000000     -0.000000      5.043007
 -----------------------------------------------------------------------------------
    total drift:                                0.000001      0.000022     -0.010094


--------------------------------------------------------------------------------------------------------



  FREE ENERGIE OF THE ION-ELECTRON SYSTEM (eV)
  ---------------------------------------------------
  free  energy   TOTEN  =       -14.69382493 eV

  energy  without entropy=      -14.70542074  energy(sigma->0) =      -14.69769020

 d Force =-0.9087359E-01[-0.151E+00,-0.305E-01]  d Energy =-0.8854885E-01-0.232E-02
 d Force =-0.8254982E+01[-0.848E+01,-0.803E+01]  d Ewald  =-0.8252016E+01-0.297E-02


--------------------------------------------------------------------------------------------------------


    POTLOK:  cpu time    1.98: real time    1.98


--------------------------------------------------------------------------------------------------------


 Finite differences progress:
  Degree of freedom:   6/  6
  Displacement:        2/  2
  Total:              12/ 12

 SECOND DERIVATIVES (NOT SYMMETRIZED)
 ------------------------------------
               1X          1Y          1Z          2X          2Y          2Z
  1X     2.585360    0.000000   -0.005136   -2.585360    0.000000    0.005136
  1Y     0.000000    2.581369    0.002178    0.000000   -2.581369   -0.002178
  1Z     0.000000    0.000000 -134.435823    0.000000   -0.000000  134.435823
  2X    -2.629436    0.000000    0.010246    2.629436    0.000000   -0.010246
  2Y     0.000000   -2.608630    0.001374    0.000000    2.608630   -0.001374
  2Z     0.000000   -0.000000  134.259172    0.000000    0.000000 -134.259172


 Eigenvectors and eigenvalues of the dynamical matrix
 ----------------------------------------------------


   1 f  =   69.183191 THz   434.690812 2PiTHz 2307.702794 cm-1   286.118784 meV
             X         Y         Z           dx          dy          dz
      0.000000  0.000000  0.000000     0.000014   -0.000006    0.755994
      0.000000  0.000000  1.120000    -0.000025   -0.000003   -0.654579

   2 f  =    0.040334 THz     0.253423 2PiTHz    1.345382 cm-1     0.166806 meV
             X         Y         Z           dx          dy          dz
      0.000000  0.000000  0.000000    -0.657969    0.000146   -0.004448
      0.000000  0.000000  1.120000    -0.753014    0.000167   -0.005123

   3 f  =    0.025000 THz     0.157083 2PiTHz    0.833926 cm-1     0.103394 meV
             X         Y         Z           dx          dy          dz
      0.000000  0.000000  0.000000     0.000106    0.656762    0.005905
      0.000000  0.000000  1.120000     0.000121    0.754044    0.006809

   4 f/i=    0.022512 THz     0.141448 2PiTHz    0.750925 cm-1     0.093103 meV
             X         Y         Z           dx          dy          dz
      0.000000  0.000000  0.000000    -0.004465   -0.005919    0.654537
      0.000000  0.000000  1.120000    -0.005110   -0.006795    0.755945

   5 f/i=    9.611099 THz    60.388315 2PiTHz  320.591740 cm-1    39.748324 meV
             X         Y         Z           dx          dy          dz
      0.000000  0.000000  0.000000    -0.000001   -0.754074   -0.000002
      0.000000  0.000000  1.120000     0.000001    0.656789    0.000002

   6 f/i=    9.631888 THz    60.518935 2PiTHz  321.285179 cm-1    39.834300 meV
             X         Y         Z           dx          dy          dz
      0.000000  0.000000  0.000000     0.753032   -0.000001   -0.000020
      0.000000  0.000000  1.120000    -0.657984    0.000001    0.000018

 Finite differences POTIM=  1.500000000000000E-002
  LATTYP: Found a simple cubic cell.
 ALAT       =    15.0000000000

  Lattice vectors:

 A1 = (  15.0000000000,   0.0000000000,   0.0000000000)
 A2 = (   0.0000000000,  15.0000000000,   0.0000000000)
 A3 = (   0.0000000000,   0.0000000000,  15.0000000000)


Analysis of symmetry for initial positions (statically):
=====================================================================
 Subroutine PRICEL returns:
 Original cell was already a primitive cell.


 Routine SETGRP: Setting up the symmetry group for a
 simple cubic supercell.


 Subroutine GETGRP returns: Found  8 space group operations
 (whereof  8 operations were pure point group operations)
 out of a pool of 48 trial point group operations.


The static configuration has the point symmetry C_4v.


Analysis of symmetry for dynamics (positions and initial velocities):
=====================================================================
 Subroutine PRICEL returns:
 Original cell was already a primitive cell.


 Routine SETGRP: Setting up the symmetry group for a
 simple cubic supercell.


 Subroutine GETGRP returns: Found  8 space group operations
 (whereof  8 operations were pure point group operations)
 out of a pool of 48 trial point group operations.


The dynamic configuration has the point symmetry C_4v.

 KPOINTS: Gamma point only
  k-points in reciprocal lattice
Space group operators:
 irot       det(A)        alpha          n_x          n_y          n_z        tau_x        tau_y        tau_z
    1     1.000000     0.000000     1.000000     0.000000     0.000000     0.000000     0.000000     0.000000
    2     1.000000    90.000000     0.000000     0.000000    -1.000000     0.000000     0.000000     0.000000
    3     1.000000   180.000000     0.000000     0.000000     1.000000     0.000000     0.000000     0.000000
    4     1.000000    90.000000     0.000000     0.000000     1.000000     0.000000     0.000000     0.000000
    5    -1.000000   180.000000     1.000000     0.000000     0.000000     0.000000     0.000000     0.000000
    6    -1.000000   180.000000     0.707107     0.707107     0.000000     0.000000     0.000000     0.000000
    7    -1.000000   180.000000     0.000000     1.000000     0.000000     0.000000     0.000000     0.000000
    8    -1.000000   180.000000     0.707107    -0.707107     0.000000     0.000000     0.000000     0.000000
 writing wavefunctions
     LOOP+:  cpu time   52.99: real time   54.84
    4ORBIT:  cpu time    0.00: real time    0.00

 total amount of memory used by VASP on root node   441793. kBytes
========================================================================

   base      :      30000. kBytes
   nonl-proj :       9831. kBytes
   fftplans  :     141100. kBytes
   grid      :     252006. kBytes
   one-center:          6. kBytes
   wavefun   :       8850. kBytes



 General timing and accounting informations for this job:
 ========================================================

                  Total CPU time used (sec):      655.030
                            User time (sec):      635.050
                          System time (sec):       19.980
                         Elapsed time (sec):      676.456

                   Maximum memory used (kb):      628116.
                   Average memory used (kb):           0.

                          Minor page faults:       870040
                          Major page faults:           38
                 Voluntary context switches:         2504
