 Entering Gaussian System, Link 0=g03
 Initial command:
 /opt/gaussian/g03_D1_amd64/g03/l1.exe /home/toon/unief/research/code/work/tamkin/examples/009_ethyl_ethene/trans/scan1/Gau-1459.inp -scrdir=/home/toon/unief/research/code/work/tamkin/examples/009_ethyl_ethene/trans/scan1/
 Entering Link 1 = /opt/gaussian/g03_D1_amd64/g03/l1.exe PID=      1461.
  
 Copyright (c) 1988,1990,1992,1993,1995,1998,2003,2004, Gaussian, Inc.
                  All Rights Reserved.
  
 This is the Gaussian(R) 03 program.  It is based on the
 the Gaussian(R) 98 system (copyright 1998, Gaussian, Inc.),
 the Gaussian(R) 94 system (copyright 1995, Gaussian, Inc.),
 the Gaussian 92(TM) system (copyright 1992, Gaussian, Inc.),
 the Gaussian 90(TM) system (copyright 1990, Gaussian, Inc.),
 the Gaussian 88(TM) system (copyright 1988, Gaussian, Inc.),
 the Gaussian 86(TM) system (copyright 1986, Carnegie Mellon
 University), and the Gaussian 82(TM) system (copyright 1983,
 Carnegie Mellon University). Gaussian is a federally registered
 trademark of Gaussian, Inc.
  
 This software contains proprietary and confidential information,
 including trade secrets, belonging to Gaussian, Inc.
  
 This software is provided under written license and may be
 used, copied, transmitted, or stored only in accord with that
 written license.
  
 The following legend is applicable only to US Government
 contracts under FAR:
  
                    RESTRICTED RIGHTS LEGEND
  
 Use, reproduction and disclosure by the US Government is
 subject to restrictions as set forth in subparagraphs (a)
 and (c) of the Commercial Computer Software - Restricted
 Rights clause in FAR 52.227-19.
  
 Gaussian, Inc.
 340 Quinnipiac St., Bldg. 40, Wallingford CT 06492
  
  
 ---------------------------------------------------------------
 Warning -- This program may not be used in any manner that
 competes with the business of Gaussian, Inc. or will provide
 assistance to any competitor of Gaussian, Inc.  The licensee
 of this program is prohibited from giving any competitor of
 Gaussian, Inc. access to this program.  By using this program,
 the user acknowledges that Gaussian, Inc. is engaged in the
 business of creating and licensing software in the field of
 computational chemistry and represents and warrants to the
 licensee that it is not a competitor of Gaussian, Inc. and that
 it will not use this program in any manner prohibited above.
 ---------------------------------------------------------------
  

 Cite this work as:
 Gaussian 03, Revision D.01,
 M. J. Frisch, G. W. Trucks, H. B. Schlegel, G. E. Scuseria, 
 M. A. Robb, J. R. Cheeseman, J. A. Montgomery, Jr., T. Vreven, 
 K. N. Kudin, J. C. Burant, J. M. Millam, S. S. Iyengar, J. Tomasi, 
 V. Barone, B. Mennucci, M. Cossi, G. Scalmani, N. Rega, 
 G. A. Petersson, H. Nakatsuji, M. Hada, M. Ehara, K. Toyota, 
 R. Fukuda, J. Hasegawa, M. Ishida, T. Nakajima, Y. Honda, O. Kitao, 
 H. Nakai, M. Klene, X. Li, J. E. Knox, H. P. Hratchian, J. B. Cross, 
 V. Bakken, C. Adamo, J. Jaramillo, R. Gomperts, R. E. Stratmann, 
 O. Yazyev, A. J. Austin, R. Cammi, C. Pomelli, J. W. Ochterski, 
 P. Y. Ayala, K. Morokuma, G. A. Voth, P. Salvador, J. J. Dannenberg, 
 V. G. Zakrzewski, S. Dapprich, A. D. Daniels, M. C. Strain, 
 O. Farkas, D. K. Malick, A. D. Rabuck, K. Raghavachari, 
 J. B. Foresman, J. V. Ortiz, Q. Cui, A. G. Baboul, S. Clifford, 
 J. Cioslowski, B. B. Stefanov, G. Liu, A. Liashenko, P. Piskorz, 
 I. Komaromi, R. L. Martin, D. J. Fox, T. Keith, M. A. Al-Laham, 
 C. Y. Peng, A. Nanayakkara, M. Challacombe, P. M. W. Gill, 
 B. Johnson, W. Chen, M. W. Wong, C. Gonzalez, and J. A. Pople, 
 Gaussian, Inc., Wallingford CT, 2004.
 
 ******************************************
 Gaussian 03:  AM64L-G03RevD.01 13-Oct-2005
                17-Nov-2009 
 ******************************************
 %chk=gaussian.chk
 %mem=1GB
 %nproc=1
 Will use up to    1 processors via shared memory.
 --------------------------------------------------------------
 #p B3LYP/6-31g(d) opt(modredundant,ts,noeigentest) maxdisk=5GB
 --------------------------------------------------------------
 1/5=1,11=1,14=-1,18=120,26=3,38=1/1,3;
 2/9=110,17=6,18=5,40=1/2;
 3/5=1,6=6,7=1,11=2,16=1,25=1,30=1,74=-5/1,2,3;
 4//1;
 5/5=2,38=5/2;
 6/7=2,8=2,9=2,10=2,28=1/1;
 7//1,2,3,16;
 1/5=1,11=1,14=-1,18=20/3(3);
 2/9=110/2;
 6/7=2,8=2,9=2,10=2,19=2,28=1/1;
 99//99;
 2/9=110/2;
 3/5=1,6=6,7=1,11=2,16=1,25=1,30=1,74=-5/1,2,3;
 4/5=5,16=3/1;
 5/5=2,38=5/2;
 7//1,2,3,16;
 1/5=1,11=1,14=-1,18=20/3(-5);
 2/9=110/2;
 6/7=2,8=2,9=2,10=2,19=2,28=1/1;
 99/9=1/99;
 Leave Link    1 at Tue Nov 17 13:27:28 2009, MaxMem=  134217728 cpu:       0.1
 (Enter /opt/gaussian/g03_D1_amd64/g03/l101.exe)
 --------
 no title
 --------
 Symbolic Z-matrix:
 Charge =  0 Multiplicity = 2
 C                     2.15482  -0.29703   0.01116 
 C                     1.03418   0.69073   0.11894 
 C                    -0.91728  -0.57006  -0.11216 
 C                    -2.02301   0.21446  -0.03189 
 H                     3.14047   0.19005   0.10627 
 H                     2.15174  -0.81325  -0.95689 
 H                     2.10382  -1.05916   0.79866 
 H                     0.81899   1.11643   1.09587 
 H                     0.86911   1.37077  -0.71305 
 H                    -0.58897  -1.15404   0.74339 
 H                    -0.5392   -0.89751  -1.07685 
 H                    -2.49093   0.44547   0.92147 
 H                    -2.44078   0.70315  -0.90817 
 
 The following ModRedundant input section has been read:
 D    5    1    2    9 S  72 5.0000                                            
                    Isotopes and Nuclear Properties:
 (Nuclear quadrupole moments (NQMom) in fm**2, nuclear magnetic moments (NMagM)
  in nuclear magnetons)

  Atom         1           2           3           4           5           6           7           8           9          10
 IAtWgt=          12          12          12          12           1           1           1           1           1           1
 AtmWgt=  12.0000000  12.0000000  12.0000000  12.0000000   1.0078250   1.0078250   1.0078250   1.0078250   1.0078250   1.0078250
 NucSpn=           0           0           0           0           1           1           1           1           1           1
 AtZEff=   0.0000000   0.0000000   0.0000000   0.0000000   0.0000000   0.0000000   0.0000000   0.0000000   0.0000000   0.0000000
 NQMom=    0.0000000   0.0000000   0.0000000   0.0000000   0.0000000   0.0000000   0.0000000   0.0000000   0.0000000   0.0000000
 NMagM=    0.0000000   0.0000000   0.0000000   0.0000000   2.7928460   2.7928460   2.7928460   2.7928460   2.7928460   2.7928460

  Atom        11          12          13
 IAtWgt=           1           1           1
 AtmWgt=   1.0078250   1.0078250   1.0078250
 NucSpn=           1           1           1
 AtZEff=   0.0000000   0.0000000   0.0000000
 NQMom=    0.0000000   0.0000000   0.0000000
 NMagM=    2.7928460   2.7928460   2.7928460
 Leave Link  101 at Tue Nov 17 13:27:29 2009, MaxMem=  134217728 cpu:       0.0
 (Enter /opt/gaussian/g03_D1_amd64/g03/l103.exe)

 GradGradGradGradGradGradGradGradGradGradGradGradGradGradGradGradGradGrad
 Berny optimization.
 Initialization pass.
                           ----------------------------
                           !    Initial Parameters    !
                           ! (Angstroms and Degrees)  !
 --------------------------                            --------------------------
 ! Name  Definition              Value          Derivative Info.                !
 --------------------------------------------------------------------------------
 ! R1    R(1,2)                  1.4977         estimate D2E/DX2                !
 ! R2    R(1,5)                  1.1035         estimate D2E/DX2                !
 ! R3    R(1,6)                  1.0971         estimate D2E/DX2                !
 ! R4    R(1,7)                  1.0971         estimate D2E/DX2                !
 ! R5    R(1,10)                 2.9663         estimate D2E/DX2                !
 ! R6    R(1,11)                 2.9668         estimate D2E/DX2                !
 ! R7    R(2,3)                  2.3348         estimate D2E/DX2                !
 ! R8    R(2,8)                  1.0872         estimate D2E/DX2                !
 ! R9    R(2,9)                  1.0872         estimate D2E/DX2                !
 ! R10   R(2,10)                 2.5353         estimate D2E/DX2                !
 ! R11   R(2,11)                 2.5353         estimate D2E/DX2                !
 ! R12   R(3,4)                  1.3581         estimate D2E/DX2                !
 ! R13   R(3,8)                  2.7052         estimate D2E/DX2                !
 ! R14   R(3,9)                  2.7054         estimate D2E/DX2                !
 ! R15   R(3,10)                 1.0866         estimate D2E/DX2                !
 ! R16   R(3,11)                 1.0866         estimate D2E/DX2                !
 ! R17   R(4,12)                 1.0868         estimate D2E/DX2                !
 ! R18   R(4,13)                 1.0868         estimate D2E/DX2                !
 ! A1    A(2,1,5)              111.7778         estimate D2E/DX2                !
 ! A2    A(2,1,6)              111.8222         estimate D2E/DX2                !
 ! A3    A(2,1,7)              111.8214         estimate D2E/DX2                !
 ! A4    A(5,1,6)              106.6328         estimate D2E/DX2                !
 ! A5    A(5,1,7)              106.6353         estimate D2E/DX2                !
 ! A6    A(5,1,10)             158.8148         estimate D2E/DX2                !
 ! A7    A(5,1,11)             158.7457         estimate D2E/DX2                !
 ! A8    A(6,1,7)              107.8407         estimate D2E/DX2                !
 ! A9    A(6,1,10)              94.5466         estimate D2E/DX2                !
 ! A10   A(6,1,11)              65.0786         estimate D2E/DX2                !
 ! A11   A(7,1,10)              65.109          estimate D2E/DX2                !
 ! A12   A(7,1,11)              94.6129         estimate D2E/DX2                !
 ! A13   A(10,1,11)             36.1109         estimate D2E/DX2                !
 ! A14   A(1,2,3)              105.1964         estimate D2E/DX2                !
 ! A15   A(1,2,8)              118.1006         estimate D2E/DX2                !
 ! A16   A(1,2,9)              118.104          estimate D2E/DX2                !
 ! A17   A(8,2,9)              114.375          estimate D2E/DX2                !
 ! A18   A(8,2,10)              86.3805         estimate D2E/DX2                !
 ! A19   A(8,2,11)             123.1127         estimate D2E/DX2                !
 ! A20   A(9,2,10)             123.1226         estimate D2E/DX2                !
 ! A21   A(9,2,11)              86.3692         estimate D2E/DX2                !
 ! A22   A(10,2,11)             42.5269         estimate D2E/DX2                !
 ! A23   A(2,3,4)              111.2661         estimate D2E/DX2                !
 ! A24   A(4,3,8)               97.818          estimate D2E/DX2                !
 ! A25   A(4,3,9)               97.8348         estimate D2E/DX2                !
 ! A26   A(4,3,10)             120.6562         estimate D2E/DX2                !
 ! A27   A(4,3,11)             120.651          estimate D2E/DX2                !
 ! A28   A(8,3,9)               39.479          estimate D2E/DX2                !
 ! A29   A(8,3,10)              77.85           estimate D2E/DX2                !
 ! A30   A(8,3,11)             111.1608         estimate D2E/DX2                !
 ! A31   A(9,3,10)             111.156          estimate D2E/DX2                !
 ! A32   A(9,3,11)              77.8338         estimate D2E/DX2                !
 ! A33   A(10,3,11)            115.5885         estimate D2E/DX2                !
 ! A34   A(3,4,12)             121.6779         estimate D2E/DX2                !
 ! A35   A(3,4,13)             121.6702         estimate D2E/DX2                !
 ! A36   A(12,4,13)            116.4991         estimate D2E/DX2                !
 ! A37   A(1,10,3)              85.9778         estimate D2E/DX2                !
 ! A38   A(1,11,3)              85.9505         estimate D2E/DX2                !
 ! D1    D(5,1,2,3)            179.9676         estimate D2E/DX2                !
 ! D2    D(5,1,2,8)            -72.3602         estimate D2E/DX2                !
 ! D3    D(5,1,2,9)             72.2818         Scan                            !
 ! D4    D(6,1,2,3)             60.4951         estimate D2E/DX2                !
 ! D5    D(6,1,2,8)            168.1674         estimate D2E/DX2                !
 ! D6    D(6,1,2,9)            -47.1907         estimate D2E/DX2                !
 ! D7    D(7,1,2,3)            -60.5573         estimate D2E/DX2                !
 ! D8    D(7,1,2,8)             47.1149         estimate D2E/DX2                !
 ! D9    D(7,1,2,9)           -168.2431         estimate D2E/DX2                !
 ! D10   D(5,1,10,3)           117.403          estimate D2E/DX2                !
 ! D11   D(6,1,10,3)           -63.9215         estimate D2E/DX2                !
 ! D12   D(7,1,10,3)          -171.4941         estimate D2E/DX2                !
 ! D13   D(11,1,10,3)          -29.6367         estimate D2E/DX2                !
 ! D14   D(5,1,11,3)          -117.5175         estimate D2E/DX2                !
 ! D15   D(6,1,11,3)           171.3802         estimate D2E/DX2                !
 ! D16   D(7,1,11,3)            63.8363         estimate D2E/DX2                !
 ! D17   D(10,1,11,3)           29.6373         estimate D2E/DX2                !
 ! D18   D(1,2,3,4)            179.9718         estimate D2E/DX2                !
 ! D19   D(2,3,4,12)           -87.6716         estimate D2E/DX2                !
 ! D20   D(2,3,4,13)            87.6772         estimate D2E/DX2                !
 ! D21   D(8,3,4,12)           -67.7437         estimate D2E/DX2                !
 ! D22   D(8,3,4,13)           107.6051         estimate D2E/DX2                !
 ! D23   D(9,3,4,12)          -107.6096         estimate D2E/DX2                !
 ! D24   D(9,3,4,13)            67.7392         estimate D2E/DX2                !
 ! D25   D(10,3,4,12)           12.7255         estimate D2E/DX2                !
 ! D26   D(10,3,4,13)         -171.9257         estimate D2E/DX2                !
 ! D27   D(11,3,4,12)          171.9306         estimate D2E/DX2                !
 ! D28   D(11,3,4,13)          -12.7205         estimate D2E/DX2                !
 ! D29   D(4,3,10,1)          -137.8832         estimate D2E/DX2                !
 ! D30   D(8,3,10,1)           -45.9267         estimate D2E/DX2                !
 ! D31   D(9,3,10,1)           -24.3491         estimate D2E/DX2                !
 ! D32   D(11,3,10,1)           61.9106         estimate D2E/DX2                !
 ! D33   D(4,3,11,1)           137.8975         estimate D2E/DX2                !
 ! D34   D(8,3,11,1)            24.3856         estimate D2E/DX2                !
 ! D35   D(9,3,11,1)            45.9297         estimate D2E/DX2                !
 ! D36   D(10,3,11,1)          -61.8952         estimate D2E/DX2                !
 --------------------------------------------------------------------------------
 Trust Radius=3.00D-01 FncErr=1.00D-07 GrdErr=1.00D-06
 Number of optimizations in scan=  73
 Number of steps in this run= 100 maximum allowed number of steps= 100.
 Search for a saddle point of order  1.
 GradGradGradGradGradGradGradGradGradGradGradGradGradGradGradGradGradGrad

 Leave Link  103 at Tue Nov 17 13:27:29 2009, MaxMem=  134217728 cpu:       0.0
 (Enter /opt/gaussian/g03_D1_amd64/g03/l202.exe)
                          Input orientation:                          
 ---------------------------------------------------------------------
 Center     Atomic     Atomic              Coordinates (Angstroms)
 Number     Number      Type              X           Y           Z
 ---------------------------------------------------------------------
    1          6             0        2.154821   -0.297029    0.011161
    2          6             0        1.034181    0.690732    0.118944
    3          6             0       -0.917282   -0.570062   -0.112158
    4          6             0       -2.023013    0.214464   -0.031886
    5          1             0        3.140473    0.190050    0.106265
    6          1             0        2.151741   -0.813254   -0.956888
    7          1             0        2.103820   -1.059159    0.798662
    8          1             0        0.818990    1.116434    1.095873
    9          1             0        0.869112    1.370770   -0.713051
   10          1             0       -0.588967   -1.154035    0.743387
   11          1             0       -0.539199   -0.897511   -1.076853
   12          1             0       -2.490934    0.445468    0.921470
   13          1             0       -2.440785    0.703146   -0.908165
 ---------------------------------------------------------------------
 SCF Done:  E(UB+HF-LYP) =  -157.737109450     A.U. after   19 cycles
                          Input orientation:                          
 ---------------------------------------------------------------------
 Center     Atomic     Atomic              Coordinates (Angstroms)
 Number     Number      Type              X           Y           Z
 ---------------------------------------------------------------------
    1          6             0        2.130106   -0.296348    0.010630
    2          6             0        1.029101    0.710810    0.113826
    3          6             0       -0.892453   -0.563918   -0.117980
    4          6             0       -2.009118    0.203871   -0.027851
    5          1             0        3.138947    0.142856    0.095136
    6          1             0        2.119648   -0.838189   -0.943265
    7          1             0        2.064805   -1.039706    0.814841
    8          1             0        0.802530    1.128136    1.091738
    9          1             0        0.863130    1.392924   -0.716178
   10          1             0       -0.552007   -1.145961    0.733767
   11          1             0       -0.507766   -0.868360   -1.087974
   12          1             0       -2.477630    0.419768    0.928750
   13          1             0       -2.436335    0.694130   -0.898679
 ---------------------------------------------------------------------
 SCF Done:  E(UB+HF-LYP) =  -157.736908835     A.U. after   14 cycles
                          Input orientation:                          
 ---------------------------------------------------------------------
 Center     Atomic     Atomic              Coordinates (Angstroms)
 Number     Number      Type              X           Y           Z
 ---------------------------------------------------------------------
    1          6             0        2.101978   -0.297800    0.012931
    2          6             0        1.025153    0.731437    0.108289
    3          6             0       -0.862828   -0.555394   -0.123299
    4          6             0       -1.993242    0.193078   -0.023398
    5          1             0        3.129467    0.099214    0.086956
    6          1             0        2.076746   -0.857892   -0.930510
    7          1             0        2.020738   -1.026590    0.829925
    8          1             0        0.788398    1.142630    1.085773
    9          1             0        0.862475    1.412581   -0.722986
   10          1             0       -0.509235   -1.137261    0.722228
   11          1             0       -0.471918   -0.839184   -1.096601
   12          1             0       -2.463539    0.391524    0.936098
   13          1             0       -2.431235    0.683671   -0.888644
 ---------------------------------------------------------------------
 SCF Done:  E(UB+HF-LYP) =  -157.736477609     A.U. after   14 cycles
                          Input orientation:                          
 ---------------------------------------------------------------------
 Center     Atomic     Atomic              Coordinates (Angstroms)
 Number     Number      Type              X           Y           Z
 ---------------------------------------------------------------------
    1          6             0        2.073088   -0.300620    0.016312
    2          6             0        1.020470    0.751456    0.103473
    3          6             0       -0.830175   -0.543764   -0.128177
    4          6             0       -1.976517    0.182120   -0.018809
    5          1             0        3.116002    0.056664    0.080366
    6          1             0        2.028630   -0.875433   -0.918011
    7          1             0        1.974886   -1.016366    0.843396
    8          1             0        0.775069    1.160397    1.079175
    9          1             0        0.864369    1.429483   -0.731333
   10          1             0       -0.463459   -1.127522    0.709571
   11          1             0       -0.434284   -0.809515   -1.104087
   12          1             0       -2.449292    0.360835    0.943295
   13          1             0       -2.425829    0.672280   -0.878409
 ---------------------------------------------------------------------
 SCF Done:  E(UB+HF-LYP) =  -157.735884038     A.U. after   14 cycles
                          Input orientation:                          
 ---------------------------------------------------------------------
 Center     Atomic     Atomic              Coordinates (Angstroms)
 Number     Number      Type              X           Y           Z
 ---------------------------------------------------------------------
    1          6             0        2.044219   -0.304232    0.020394
    2          6             0        1.013645    0.769013    0.098704
    3          6             0       -0.794777   -0.528623   -0.133089
    4          6             0       -1.959083    0.171574   -0.013904
    5          1             0        3.099617    0.015714    0.076024
    6          1             0        1.978445   -0.891710   -0.905148
    7          1             0        1.928558   -1.007344    0.856237
    8          1             0        0.762601    1.179811    1.071613
    9          1             0        0.866069    1.442253   -0.741221
   10          1             0       -0.415593   -1.117203    0.695135
   11          1             0       -0.396266   -0.778946   -1.111384
   12          1             0       -2.434216    0.328454    0.950772
   13          1             0       -2.420262    0.661254   -0.867371
 ---------------------------------------------------------------------
 SCF Done:  E(UB+HF-LYP) =  -157.735173680     A.U. after   15 cycles
                          Input orientation:                          
 ---------------------------------------------------------------------
 Center     Atomic     Atomic              Coordinates (Angstroms)
 Number     Number      Type              X           Y           Z
 ---------------------------------------------------------------------
    1          6             0        2.016465   -0.308407    0.024929
    2          6             0        1.002284    0.781229    0.093276
    3          6             0       -0.756725   -0.509314   -0.138304
    4          6             0       -1.940765    0.162894   -0.008429
    5          1             0        3.081078   -0.020828    0.075074
    6          1             0        1.930435   -0.907727   -0.891506
    7          1             0        1.884069   -0.998857    0.868870
    8          1             0        0.750088    1.198286    1.062704
    9          1             0        0.863683    1.448271   -0.752795
   10          1             0       -0.366839   -1.107029    0.678118
   11          1             0       -0.359300   -0.747667   -1.119228
   12          1             0       -2.417342    0.296351    0.958965
   13          1             0       -2.414173    0.652813   -0.854911
 ---------------------------------------------------------------------
 SCF Done:  E(UB+HF-LYP) =  -157.734509194     A.U. after   15 cycles
                          Input orientation:                          
 ---------------------------------------------------------------------
 Center     Atomic     Atomic              Coordinates (Angstroms)
 Number     Number      Type              X           Y           Z
 ---------------------------------------------------------------------
    1          6             0        1.992815   -0.313043    0.029459
    2          6             0        0.982759    0.782867    0.086969
    3          6             0       -0.717344   -0.485548   -0.143348
    4          6             0       -1.922152    0.159304   -0.002406
    5          1             0        3.061927   -0.045078    0.079717
    6          1             0        1.892705   -0.923073   -0.878342
    7          1             0        1.847521   -0.992625    0.880049
    8          1             0        0.736580    1.211359    1.052566
    9          1             0        0.852294    1.442692   -0.765756
   10          1             0       -0.321454   -1.098626    0.658911
   11          1             0       -0.326911   -0.718858   -1.127475
   12          1             0       -2.398732    0.269911    0.967748
   13          1             0       -2.407050    0.650732   -0.841331
 ---------------------------------------------------------------------
 SCF Done:  E(UB+HF-LYP) =  -157.734543740     A.U. after   15 cycles
                          Input orientation:                          
 ---------------------------------------------------------------------
 Center     Atomic     Atomic              Coordinates (Angstroms)
 Number     Number      Type              X           Y           Z
 ---------------------------------------------------------------------
    1          6             0        2.018637   -0.310950    0.026724
    2          6             0        0.997240    0.773826    0.092194
    3          6             0       -0.754102   -0.503926   -0.138551
    4          6             0       -1.941151    0.166027   -0.007509
    5          1             0        3.078332   -0.007548    0.082157
    6          1             0        1.933017   -0.905736   -0.892608
    7          1             0        1.886732   -1.005200    0.867500
    8          1             0        0.752259    1.198371    1.060075
    9          1             0        0.862317    1.438096   -0.756401
   10          1             0       -0.365948   -1.108655    0.675377
   11          1             0       -0.361881   -0.748707   -1.119426
   12          1             0       -2.417594    0.297174    0.960233
   13          1             0       -2.414901    0.657243   -0.853004
 ---------------------------------------------------------------------
 SCF Done:  E(UB+HF-LYP) =  -157.735169374     A.U. after   15 cycles
                          Input orientation:                          
 ---------------------------------------------------------------------
 Center     Atomic     Atomic              Coordinates (Angstroms)
 Number     Number      Type              X           Y           Z
 ---------------------------------------------------------------------
    1          6             0        2.043530   -0.309358    0.023865
    2          6             0        1.013274    0.766942    0.098420
    3          6             0       -0.790207   -0.521571   -0.133145
    4          6             0       -1.960289    0.170722   -0.012730
    5          1             0        3.093077    0.026686    0.084066
    6          1             0        1.969875   -0.887143   -0.907151
    7          1             0        1.923085   -1.018107    0.853919
    8          1             0        0.770334    1.188874    1.068403
    9          1             0        0.876116    1.435305   -0.746803
   10          1             0       -0.410035   -1.116462    0.691993
   11          1             0       -0.395785   -0.778117   -1.111097
   12          1             0       -2.436685    0.321914    0.952169
   13          1             0       -2.423332    0.660330   -0.865147
 ---------------------------------------------------------------------
 SCF Done:  E(UB+HF-LYP) =  -157.735671759     A.U. after   15 cycles
                          Input orientation:                          
 ---------------------------------------------------------------------
 Center     Atomic     Atomic              Coordinates (Angstroms)
 Number     Number      Type              X           Y           Z
 ---------------------------------------------------------------------
    1          6             0        2.069408   -0.310425    0.022410
    2          6             0        1.025030    0.755681    0.104393
    3          6             0       -0.821130   -0.531427   -0.128292
    4          6             0       -1.980430    0.175486   -0.016800
    5          1             0        3.104312    0.065111    0.091864
    6          1             0        2.005071   -0.868689   -0.920550
    7          1             0        1.957343   -1.034495    0.839425
    8          1             0        0.792917    1.184888    1.074328
    9          1             0        0.891698    1.425269   -0.740835
   10          1             0       -0.449931   -1.122278    0.703842
   11          1             0       -0.429272   -0.804427   -1.104150
   12          1             0       -2.456679    0.341846    0.945709
   13          1             0       -2.435379    0.663472   -0.874582
 ---------------------------------------------------------------------
 SCF Done:  E(UB+HF-LYP) =  -157.736354572     A.U. after   14 cycles
                          Input orientation:                          
 ---------------------------------------------------------------------
 Center     Atomic     Atomic              Coordinates (Angstroms)
 Number     Number      Type              X           Y           Z
 ---------------------------------------------------------------------
    1          6             0        2.098764   -0.308713    0.020314
    2          6             0        1.028431    0.735320    0.109137
    3          6             0       -0.850326   -0.538835   -0.124317
    4          6             0       -1.999589    0.185004   -0.020468
    5          1             0        3.116772    0.106861    0.102147
    6          1             0        2.051353   -0.851706   -0.931889
    7          1             0        2.000125   -1.046790    0.826054
    8          1             0        0.812258    1.173536    1.079341
    9          1             0        0.894134    1.406630   -0.735144
   10          1             0       -0.492624   -1.131009    0.712831
   11          1             0       -0.466415   -0.830745   -1.098740
   12          1             0       -2.473300    0.368083    0.940297
   13          1             0       -2.446624    0.672378   -0.882803
 ---------------------------------------------------------------------
 SCF Done:  E(UB+HF-LYP) =  -157.736871695     A.U. after   14 cycles
                          Input orientation:                          
 ---------------------------------------------------------------------
 Center     Atomic     Atomic              Coordinates (Angstroms)
 Number     Number      Type              X           Y           Z
 ---------------------------------------------------------------------
    1          6             0        2.125785   -0.302218    0.014837
    2          6             0        1.039664    0.721111    0.114698
    3          6             0       -0.890318   -0.560770   -0.117820
    4          6             0       -2.014157    0.195785   -0.027275
    5          1             0        3.132550    0.141861    0.099382
    6          1             0        2.101070   -0.832188   -0.945714
    7          1             0        2.049732   -1.052328    0.812399
    8          1             0        0.819260    1.146328    1.090219
    9          1             0        0.887559    1.399935   -0.720918
   10          1             0       -0.543546   -1.140863    0.731896
   11          1             0       -0.503077   -0.864819   -1.086679
   12          1             0       -2.485413    0.405500    0.929363
   13          1             0       -2.446150    0.682679   -0.897627
 ---------------------------------------------------------------------
 SCF Done:  E(UB+HF-LYP) =  -157.736999245     A.U. after   16 cycles
                          Input orientation:                          
 ---------------------------------------------------------------------
 Center     Atomic     Atomic              Coordinates (Angstroms)
 Number     Number      Type              X           Y           Z
 ---------------------------------------------------------------------
    1          6             0        2.142316   -0.299736    0.013338
    2          6             0        1.033789    0.703108    0.116182
    3          6             0       -0.901206   -0.561128   -0.116350
    4          6             0       -2.020565    0.205118   -0.028329
    5          1             0        3.137618    0.167061    0.105946
    6          1             0        2.127871   -0.825552   -0.949376
    7          1             0        2.076618   -1.054413    0.806795
    8          1             0        0.821767    1.134431    1.091064
    9          1             0        0.878421    1.381162   -0.719028
   10          1             0       -0.563951   -1.148196    0.733640
   11          1             0       -0.522188   -0.877559   -1.084663
   12          1             0       -2.489380    0.422588    0.927754
   13          1             0       -2.448153    0.693132   -0.900213
 ---------------------------------------------------------------------
 SCF Done:  E(UB+HF-LYP) =  -157.737091425     A.U. after   13 cycles
                          Input orientation:                          
 ---------------------------------------------------------------------
 Center     Atomic     Atomic              Coordinates (Angstroms)
 Number     Number      Type              X           Y           Z
 ---------------------------------------------------------------------
    1          6             0        2.153098   -0.297283    0.012051
    2          6             0        1.034978    0.693451    0.117780
    3          6             0       -0.915072   -0.568111   -0.113676
    4          6             0       -2.024186    0.211445   -0.030555
    5          1             0        3.140680    0.185560    0.107249
    6          1             0        2.148400   -0.815458   -0.954918
    7          1             0        2.098626   -1.058187    0.800822
    8          1             0        0.822594    1.121836    1.094235
    9          1             0        0.872254    1.373175   -0.715124
   10          1             0       -0.584466   -1.153297    0.740017
   11          1             0       -0.537435   -0.892281   -1.079621
   12          1             0       -2.491306    0.439357    0.923939
   13          1             0       -2.445207    0.699806   -0.905438
 ---------------------------------------------------------------------
 SCF Done:  E(UB+HF-LYP) =  -157.737107924     A.U. after   20 cycles
                          Input orientation:                          
 ---------------------------------------------------------------------
 Center     Atomic     Atomic              Coordinates (Angstroms)
 Number     Number      Type              X           Y           Z
 ---------------------------------------------------------------------
    1          6             0        2.154767   -0.296647    0.011303
    2          6             0        1.033938    0.690952    0.118483
    3          6             0       -0.916766   -0.569609   -0.112765
    4          6             0       -2.023543    0.213585   -0.031140
    5          1             0        3.140806    0.189617    0.106459
    6          1             0        2.151987   -0.813847   -0.956242
    7          1             0        2.103421   -1.058217    0.799377
    8          1             0        0.819818    1.117803    1.095176
    9          1             0        0.869066    1.370738   -0.713756
   10          1             0       -0.587892   -1.154507    0.741956
   11          1             0       -0.539315   -0.895899   -1.078132
   12          1             0       -2.490834    0.443557    0.922773
   13          1             0       -2.442496    0.702489   -0.906733
 ---------------------------------------------------------------------
 SCF Done:  E(UB+HF-LYP) =  -157.737109240     A.U. after   17 cycles
                          Input orientation:                          
 ---------------------------------------------------------------------
 Center     Atomic     Atomic              Coordinates (Angstroms)
 Number     Number      Type              X           Y           Z
 ---------------------------------------------------------------------
    1          6             0        2.154886   -0.296647    0.011009
    2          6             0        1.033962    0.690768    0.118854
    3          6             0       -0.917118   -0.570207   -0.112239
    4          6             0       -2.023096    0.214031   -0.031474
    5          1             0        3.140452    0.190647    0.105955
    6          1             0        2.151923   -0.812947   -0.957001
    7          1             0        2.104243   -1.058742    0.798576
    8          1             0        0.818904    1.116627    1.095735
    9          1             0        0.868643    1.370684   -0.713193
   10          1             0       -0.588605   -1.154446    0.743049
   11          1             0       -0.539262   -0.897308   -1.077137
   12          1             0       -2.490781    0.444626    0.922097
   13          1             0       -2.441194    0.702928   -0.907471
 ---------------------------------------------------------------------
 SCF Done:  E(UB+HF-LYP) =  -157.737109452     A.U. after   10 cycles
    -- Stationary point found.
                          Input orientation:                          
 ---------------------------------------------------------------------
 Center     Atomic     Atomic              Coordinates (Angstroms)
 Number     Number      Type              X           Y           Z
 ---------------------------------------------------------------------
    1          6             0        2.155703   -0.297687    0.004789
    2          6             0        1.041502    0.702629    0.125786
    3          6             0       -0.914743   -0.568522   -0.113043
    4          6             0       -2.022001    0.213373   -0.027755
    5          1             0        3.141568    0.181448    0.132863
    6          1             0        2.149506   -0.815679   -0.962303
    7          1             0        2.101914   -1.058930    0.792960
    8          1             0        0.817143    1.127928    1.097237
    9          1             0        0.852145    1.355511   -0.732104
   10          1             0       -0.584812   -1.151487    0.734538
   11          1             0       -0.533965   -0.892897   -1.082081
   12          1             0       -2.487638    0.441072    0.927513
   13          1             0       -2.443364    0.703254   -0.901639
 ---------------------------------------------------------------------
 SCF Done:  E(UB+HF-LYP) =  -157.736803709     A.U. after   20 cycles
                          Input orientation:                          
 ---------------------------------------------------------------------
 Center     Atomic     Atomic              Coordinates (Angstroms)
 Number     Number      Type              X           Y           Z
 ---------------------------------------------------------------------
    1          6             0        2.151841   -0.296237    0.015142
    2          6             0        1.026452    0.688947    0.114781
    3          6             0       -0.900462   -0.558314   -0.121061
    4          6             0       -2.014413    0.217862   -0.022451
    5          1             0        3.136808    0.184085    0.142563
    6          1             0        2.154596   -0.813884   -0.950380
    7          1             0        2.098467   -1.057891    0.804893
    8          1             0        0.814236    1.137032    1.081120
    9          1             0        0.831599    1.326629   -0.743370
   10          1             0       -0.574103   -1.162865    0.720746
   11          1             0       -0.537044   -0.876236   -1.095167
   12          1             0       -2.473971    0.434067    0.938371
   13          1             0       -2.441047    0.716818   -0.888426
 ---------------------------------------------------------------------
 SCF Done:  E(UB+HF-LYP) =  -157.736960249     A.U. after   16 cycles
                          Input orientation:                          
 ---------------------------------------------------------------------
 Center     Atomic     Atomic              Coordinates (Angstroms)
 Number     Number      Type              X           Y           Z
 ---------------------------------------------------------------------
    1          6             0        2.152764   -0.297654    0.015993
    2          6             0        1.036744    0.696799    0.113570
    3          6             0       -0.907437   -0.561115   -0.120148
    4          6             0       -2.021026    0.211945   -0.022579
    5          1             0        3.139891    0.177950    0.145799
    6          1             0        2.156396   -0.809524   -0.953111
    7          1             0        2.087847   -1.063392    0.800492
    8          1             0        0.827054    1.145543    1.080774
    9          1             0        0.845697    1.338057   -0.742332
   10          1             0       -0.574852   -1.159523    0.723594
   11          1             0       -0.538966   -0.876369   -1.092975
   12          1             0       -2.481241    0.430229    0.937507
   13          1             0       -2.449913    0.707070   -0.889821
 ---------------------------------------------------------------------
 SCF Done:  E(UB+HF-LYP) =  -157.736988453     A.U. after   13 cycles
                          Input orientation:                          
 ---------------------------------------------------------------------
 Center     Atomic     Atomic              Coordinates (Angstroms)
 Number     Number      Type              X           Y           Z
 ---------------------------------------------------------------------
    1          6             0        2.149098   -0.298677    0.019129
    2          6             0        1.034159    0.697262    0.109936
    3          6             0       -0.901843   -0.558267   -0.120912
    4          6             0       -2.019255    0.210117   -0.019727
    5          1             0        3.137693    0.172896    0.151624
    6          1             0        2.157934   -0.807934   -0.951807
    7          1             0        2.073559   -1.066961    0.799742
    8          1             0        0.828680    1.154215    1.074596
    9          1             0        0.846315    1.337543   -0.747182
   10          1             0       -0.567494   -1.158740    0.720664
   11          1             0       -0.535308   -0.871545   -1.095280
   12          1             0       -2.479649    0.424187    0.941212
   13          1             0       -2.450930    0.705917   -0.885233
 ---------------------------------------------------------------------
 SCF Done:  E(UB+HF-LYP) =  -157.737014605     A.U. after   12 cycles
                          Input orientation:                          
 ---------------------------------------------------------------------
 Center     Atomic     Atomic              Coordinates (Angstroms)
 Number     Number      Type              X           Y           Z
 ---------------------------------------------------------------------
    1          6             0        2.146130   -0.299488    0.019370
    2          6             0        1.036590    0.702334    0.107181
    3          6             0       -0.902431   -0.560425   -0.118919
    4          6             0       -2.019707    0.206870   -0.018729
    5          1             0        3.136870    0.165952    0.157023
    6          1             0        2.160468   -0.802770   -0.954814
    7          1             0        2.058220   -1.072326    0.793883
    8          1             0        0.831209    1.160173    1.071522
    9          1             0        0.854643    1.346238   -0.748890
   10          1             0       -0.563129   -1.155914    0.724270
   11          1             0       -0.532533   -0.872351   -1.092123
   12          1             0       -2.481080    0.420714    0.941765
   13          1             0       -2.452292    0.701006   -0.884779
 ---------------------------------------------------------------------
 SCF Done:  E(UB+HF-LYP) =  -157.737032047     A.U. after   12 cycles
                          Input orientation:                          
 ---------------------------------------------------------------------
 Center     Atomic     Atomic              Coordinates (Angstroms)
 Number     Number      Type              X           Y           Z
 ---------------------------------------------------------------------
    1          6             0        2.144240   -0.299569    0.018809
    2          6             0        1.035339    0.703093    0.105319
    3          6             0       -0.901766   -0.561676   -0.117362
    4          6             0       -2.018416    0.206692   -0.018005
    5          1             0        3.135092    0.164287    0.161078
    6          1             0        2.162655   -0.799303   -0.957207
    7          1             0        2.052119   -1.075157    0.790027
    8          1             0        0.829075    1.160730    1.069591
    9          1             0        0.857512    1.349114   -0.750167
   10          1             0       -0.561355   -1.154858    0.726895
   11          1             0       -0.530802   -0.874419   -1.089916
   12          1             0       -2.480341    0.420646    0.942217
   13          1             0       -2.450395    0.700433   -0.884517
 ---------------------------------------------------------------------
 SCF Done:  E(UB+HF-LYP) =  -157.737040837     A.U. after   11 cycles
                          Input orientation:                          
 ---------------------------------------------------------------------
 Center     Atomic     Atomic              Coordinates (Angstroms)
 Number     Number      Type              X           Y           Z
 ---------------------------------------------------------------------
    1          6             0        2.143139   -0.299350    0.016531
    2          6             0        1.034220    0.703368    0.103038
    3          6             0       -0.903533   -0.565121   -0.113661
    4          6             0       -2.017402    0.207232   -0.017871
    5          1             0        3.132925    0.164233    0.167588
    6          1             0        2.168450   -0.791742   -0.963043
    7          1             0        2.047148   -1.080450    0.781655
    8          1             0        0.825627    1.158108    1.068173
    9          1             0        0.862619    1.354485   -0.750201
   10          1             0       -0.562383   -1.153078    0.733943
   11          1             0       -0.530388   -0.881163   -1.084183
   12          1             0       -2.480288    0.424199    0.941187
   13          1             0       -2.447175    0.699291   -0.886396
 ---------------------------------------------------------------------
 SCF Done:  E(UB+HF-LYP) =  -157.737051302     A.U. after   11 cycles
                          Input orientation:                          
 ---------------------------------------------------------------------
 Center     Atomic     Atomic              Coordinates (Angstroms)
 Number     Number      Type              X           Y           Z
 ---------------------------------------------------------------------
    1          6             0        2.143989   -0.298862    0.014220
    2          6             0        1.033087    0.701647    0.102687
    3          6             0       -0.905114   -0.566908   -0.110716
    4          6             0       -2.017083    0.208635   -0.018639
    5          1             0        3.132105    0.166644    0.170546
    6          1             0        2.172985   -0.786520   -0.967567
    7          1             0        2.048508   -1.083609    0.775688
    8          1             0        0.823285    1.153342    1.068989
    9          1             0        0.863546    1.356413   -0.748282
   10          1             0       -0.565453   -1.151825    0.739590
   11          1             0       -0.531326   -0.887083   -1.079614
   12          1             0       -2.480744    0.429484    0.939158
   13          1             0       -2.444827    0.698656   -0.889300
 ---------------------------------------------------------------------
 SCF Done:  E(UB+HF-LYP) =  -157.737057800     A.U. after    9 cycles
                          Input orientation:                          
 ---------------------------------------------------------------------
 Center     Atomic     Atomic              Coordinates (Angstroms)
 Number     Number      Type              X           Y           Z
 ---------------------------------------------------------------------
    1          6             0        2.148588   -0.297498    0.009319
    2          6             0        1.032446    0.696811    0.103762
    3          6             0       -0.910987   -0.570609   -0.104824
    4          6             0       -2.018421    0.211916   -0.021398
    5          1             0        3.132519    0.174269    0.173883
    6          1             0        2.184516   -0.775828   -0.976725
    7          1             0        2.056696   -1.089313    0.763906
    8          1             0        0.821234    1.141564    1.073026
    9          1             0        0.863266    1.358615   -0.741988
   10          1             0       -0.575864   -1.149616    0.751327
   11          1             0       -0.536409   -0.900419   -1.070136
   12          1             0       -2.482920    0.443050    0.933562
   13          1             0       -2.441707    0.697073   -0.896952
 ---------------------------------------------------------------------
 SCF Done:  E(UB+HF-LYP) =  -157.737067059     A.U. after   12 cycles
                          Input orientation:                          
 ---------------------------------------------------------------------
 Center     Atomic     Atomic              Coordinates (Angstroms)
 Number     Number      Type              X           Y           Z
 ---------------------------------------------------------------------
    1          6             0        2.152071   -0.296372    0.006232
    2          6             0        1.032374    0.693542    0.105518
    3          6             0       -0.914285   -0.572034   -0.101513
    4          6             0       -2.019558    0.213987   -0.023747
    5          1             0        3.133846    0.178999    0.173431
    6          1             0        2.190590   -0.770538   -0.981680
    7          1             0        2.063142   -1.091401    0.757813
    8          1             0        0.820941    1.133164    1.077063
    9          1             0        0.860697    1.359083   -0.736713
   10          1             0       -0.582499   -1.148083    0.758042
   11          1             0       -0.539632   -0.908038   -1.064576
   12          1             0       -2.484397    0.452074    0.929351
   13          1             0       -2.440330    0.695631   -0.902461
 ---------------------------------------------------------------------
 SCF Done:  E(UB+HF-LYP) =  -157.737071196     A.U. after   11 cycles
                          Input orientation:                          
 ---------------------------------------------------------------------
 Center     Atomic     Atomic              Coordinates (Angstroms)
 Number     Number      Type              X           Y           Z
 ---------------------------------------------------------------------
    1          6             0        2.155036   -0.295375    0.003583
    2          6             0        1.032677    0.691079    0.107578
    3          6             0       -0.916712   -0.572758   -0.098684
    4          6             0       -2.020677    0.215466   -0.026101
    5          1             0        3.135429    0.182436    0.171884
    6          1             0        2.194850   -0.766362   -0.985796
    7          1             0        2.068142   -1.092906    0.752755
    8          1             0        0.821434    1.125873    1.081338
    9          1             0        0.857843    1.359692   -0.731457
   10          1             0       -0.587785   -1.146141    0.763802
   11          1             0       -0.541958   -0.914323   -1.059733
   12          1             0       -2.485828    0.459764    0.925283
   13          1             0       -2.439495    0.693569   -0.907690
 ---------------------------------------------------------------------
 SCF Done:  E(UB+HF-LYP) =  -157.737073378     A.U. after   11 cycles
                          Input orientation:                          
 ---------------------------------------------------------------------
 Center     Atomic     Atomic              Coordinates (Angstroms)
 Number     Number      Type              X           Y           Z
 ---------------------------------------------------------------------
    1          6             0        2.155907   -0.294987    0.002408
    2          6             0        1.032884    0.690454    0.108854
    3          6             0       -0.917084   -0.572696   -0.097432
    4          6             0       -2.020983    0.215860   -0.027350
    5          1             0        3.136162    0.183144    0.170442
    6          1             0        2.195289   -0.764837   -0.987539
    7          1             0        2.069630   -1.093452    0.750655
    8          1             0        0.821806    1.122837    1.083704
    9          1             0        0.856332    1.360322   -0.728751
   10          1             0       -0.589262   -1.144729    0.766392
   11          1             0       -0.542172   -0.916764   -1.057525
   12          1             0       -2.486453    0.462787    0.923202
   13          1             0       -2.439098    0.692075   -0.910299
 ---------------------------------------------------------------------
 SCF Done:  E(UB+HF-LYP) =  -157.737074101     A.U. after    8 cycles
                          Input orientation:                          
 ---------------------------------------------------------------------
 Center     Atomic     Atomic              Coordinates (Angstroms)
 Number     Number      Type              X           Y           Z
 ---------------------------------------------------------------------
    1          6             0        2.156419   -0.294604    0.000692
    2          6             0        1.033214    0.690222    0.110651
    3          6             0       -0.917131   -0.572610   -0.095449
    4          6             0       -2.021196    0.216033   -0.029150
    5          1             0        3.136856    0.183112    0.168661
    6          1             0        2.194946   -0.762283   -0.990342
    7          1             0        2.070331   -1.094789    0.747110
    8          1             0        0.822409    1.119279    1.087021
    9          1             0        0.855022    1.362180   -0.724869
   10          1             0       -0.590468   -1.142086    0.770510
   11          1             0       -0.541633   -0.920204   -1.054053
   12          1             0       -2.487383    0.466537    0.920120
   13          1             0       -2.438429    0.689226   -0.914140
 ---------------------------------------------------------------------
 SCF Done:  E(UB+HF-LYP) =  -157.737074719     A.U. after    9 cycles
                          Input orientation:                          
 ---------------------------------------------------------------------
 Center     Atomic     Atomic              Coordinates (Angstroms)
 Number     Number      Type              X           Y           Z
 ---------------------------------------------------------------------
    1          6             0        2.156253   -0.294422   -0.000791
    2          6             0        1.033417    0.690428    0.112373
    3          6             0       -0.916687   -0.572457   -0.093705
    4          6             0       -2.021133    0.215962   -0.030769
    5          1             0        3.137122    0.182421    0.167023
    6          1             0        2.193434   -0.760056   -0.992852
    7          1             0        2.070414   -1.096183    0.743958
    8          1             0        0.823002    1.116833    1.089975
    9          1             0        0.854269    1.364204   -0.721444
   10          1             0       -0.590823   -1.139439    0.774185
   11          1             0       -0.540447   -0.922960   -1.050969
   12          1             0       -2.488164    0.469308    0.917332
   13          1             0       -2.437699    0.686375   -0.917556
 ---------------------------------------------------------------------
 SCF Done:  E(UB+HF-LYP) =  -157.737075175     A.U. after   10 cycles
                          Input orientation:                          
 ---------------------------------------------------------------------
 Center     Atomic     Atomic              Coordinates (Angstroms)
 Number     Number      Type              X           Y           Z
 ---------------------------------------------------------------------
    1          6             0        2.155664   -0.294315   -0.002676
    2          6             0        1.033722    0.690976    0.114733
    3          6             0       -0.916021   -0.572314   -0.091468
    4          6             0       -2.021025    0.215665   -0.032908
    5          1             0        3.137259    0.181116    0.164879
    6          1             0        2.190859   -0.757129   -0.996146
    7          1             0        2.070235   -1.098198    0.739821
    8          1             0        0.824227    1.114380    1.093841
    9          1             0        0.853678    1.367110   -0.716955
   10          1             0       -0.591007   -1.135841    0.778972
   11          1             0       -0.538557   -0.926338   -1.046967
   12          1             0       -2.489282    0.472511    0.913648
   13          1             0       -2.436792    0.682391   -0.922014
 ---------------------------------------------------------------------
 SCF Done:  E(UB+HF-LYP) =  -157.737075649     A.U. after    8 cycles
                          Input orientation:                          
 ---------------------------------------------------------------------
 Center     Atomic     Atomic              Coordinates (Angstroms)
 Number     Number      Type              X           Y           Z
 ---------------------------------------------------------------------
    1          6             0        2.155022   -0.294355   -0.003590
    2          6             0        1.033929    0.691540    0.116207
    3          6             0       -0.915456   -0.572148   -0.090433
    4          6             0       -2.020939    0.215320   -0.034101
    5          1             0        3.137252    0.179998    0.163337
    6          1             0        2.188626   -0.755936   -0.997696
    7          1             0        2.069986   -1.099148    0.737968
    8          1             0        0.825369    1.113719    1.096050
    9          1             0        0.853376    1.368732   -0.714492
   10          1             0       -0.590730   -1.133850    0.781273
   11          1             0       -0.537117   -0.927671   -1.045043
   12          1             0       -2.489969    0.473710    0.911652
   13          1             0       -2.436391    0.680104   -0.924371
 ---------------------------------------------------------------------
 SCF Done:  E(UB+HF-LYP) =  -157.737075937     A.U. after    8 cycles
                          Input orientation:                          
 ---------------------------------------------------------------------
 Center     Atomic     Atomic              Coordinates (Angstroms)
 Number     Number      Type              X           Y           Z
 ---------------------------------------------------------------------
    1          6             0        2.154338   -0.294454   -0.004255
    2          6             0        1.034085    0.692108    0.117402
    3          6             0       -0.914960   -0.572013   -0.089683
    4          6             0       -2.020885    0.214938   -0.035026
    5          1             0        3.137168    0.178897    0.162052
    6          1             0        2.186597   -0.755147   -0.998824
    7          1             0        2.069572   -1.099888    0.736640
    8          1             0        0.826672    1.113683    1.097768
    9          1             0        0.853209    1.370064   -0.712596
   10          1             0       -0.590353   -1.132301    0.782961
   11          1             0       -0.535738   -0.928426   -1.043622
   12          1             0       -2.490630    0.474294    0.910106
   13          1             0       -2.436116    0.678259   -0.926162
 ---------------------------------------------------------------------
 SCF Done:  E(UB+HF-LYP) =  -157.737076142     A.U. after    8 cycles
                          Input orientation:                          
 ---------------------------------------------------------------------
 Center     Atomic     Atomic              Coordinates (Angstroms)
 Number     Number      Type              X           Y           Z
 ---------------------------------------------------------------------
    1          6             0        2.153867   -0.294606   -0.004132
    2          6             0        1.034151    0.692530    0.117615
    3          6             0       -0.914620   -0.571860   -0.089847
    4          6             0       -2.020854    0.214641   -0.035070
    5          1             0        3.137047    0.178222    0.161614
    6          1             0        2.185487   -0.755605   -0.998581
    7          1             0        2.069068   -1.099796    0.737026
    8          1             0        0.827361    1.114628    1.097899
    9          1             0        0.853308    1.370273   -0.712565
   10          1             0       -0.589759   -1.132158    0.782684
   11          1             0       -0.535047   -0.927743   -1.043850
   12          1             0       -2.490829    0.473481    0.910088
   13          1             0       -2.436220    0.678007   -0.926119
 ---------------------------------------------------------------------
 SCF Done:  E(UB+HF-LYP) =  -157.737076249     A.U. after    7 cycles
                          Input orientation:                          
 ---------------------------------------------------------------------
 Center     Atomic     Atomic              Coordinates (Angstroms)
 Number     Number      Type              X           Y           Z
 ---------------------------------------------------------------------
    1          6             0        2.153649   -0.294805   -0.003264
    2          6             0        1.034112    0.692745    0.116827
    3          6             0       -0.914495   -0.571718   -0.090857
    4          6             0       -2.020878    0.214448   -0.034248
    5          1             0        3.136882    0.178032    0.162143
    6          1             0        2.185488   -0.757146   -0.997084
    7          1             0        2.068497   -1.098984    0.738951
    8          1             0        0.827473    1.116491    1.096443
    9          1             0        0.853715    1.369395   -0.714352
   10          1             0       -0.589054   -1.133376    0.780580
   11          1             0       -0.535113   -0.925756   -1.045620
   12          1             0       -2.490609    0.471390    0.911548
   13          1             0       -2.436707    0.679299   -0.924306
 ---------------------------------------------------------------------
 SCF Done:  E(UB+HF-LYP) =  -157.737076319     A.U. after    8 cycles
    -- Stationary point found.
                          Input orientation:                          
 ---------------------------------------------------------------------
 Center     Atomic     Atomic              Coordinates (Angstroms)
 Number     Number      Type              X           Y           Z
 ---------------------------------------------------------------------
    1          6             0        2.154315   -0.294284   -0.008838
    2          6             0        1.041267    0.705562    0.123676
    3          6             0       -0.911638   -0.569761   -0.091977
    4          6             0       -2.019742    0.213592   -0.030356
    5          1             0        3.139132    0.163104    0.187923
    6          1             0        2.182790   -0.759173   -1.001569
    7          1             0        2.065368   -1.097165    0.734339
    8          1             0        0.825069    1.129303    1.097639
    9          1             0        0.836068    1.354467   -0.733389
   10          1             0       -0.584248   -1.131454    0.772267
   11          1             0       -0.528785   -0.920850   -1.052243
   12          1             0       -2.487615    0.466844    0.917355
   13          1             0       -2.439023    0.679829   -0.918067
 ---------------------------------------------------------------------
 SCF Done:  E(UB+HF-LYP) =  -157.736710346     A.U. after   14 cycles
                          Input orientation:                          
 ---------------------------------------------------------------------
 Center     Atomic     Atomic              Coordinates (Angstroms)
 Number     Number      Type              X           Y           Z
 ---------------------------------------------------------------------
    1          6             0        2.154601   -0.292246   -0.004655
    2          6             0        1.037937    0.698742    0.110250
    3          6             0       -0.912527   -0.571940   -0.086573
    4          6             0       -2.018401    0.213756   -0.028576
    5          1             0        3.136902    0.161926    0.210829
    6          1             0        2.211193   -0.726437   -1.009239
    7          1             0        2.041019   -1.116954    0.711859
    8          1             0        0.827449    1.131571    1.084463
    9          1             0        0.836530    1.351059   -0.734619
   10          1             0       -0.583889   -1.131453    0.785250
   11          1             0       -0.537345   -0.929648   -1.041993
   12          1             0       -2.481980    0.477093    0.918507
   13          1             0       -2.438532    0.674545   -0.918743
 ---------------------------------------------------------------------
 SCF Done:  E(UB+HF-LYP) =  -157.736961129     A.U. after   14 cycles
                          Input orientation:                          
 ---------------------------------------------------------------------
 Center     Atomic     Atomic              Coordinates (Angstroms)
 Number     Number      Type              X           Y           Z
 ---------------------------------------------------------------------
    1          6             0        2.150644   -0.292640   -0.008874
    2          6             0        1.033036    0.697417    0.107753
    3          6             0       -0.907773   -0.571767   -0.078950
    4          6             0       -2.015792    0.213629   -0.029377
    5          1             0        3.130991    0.157579    0.221930
    6          1             0        2.219185   -0.712332   -1.019351
    7          1             0        2.025660   -1.128267    0.692663
    8          1             0        0.826856    1.129084    1.083885
    9          1             0        0.840426    1.360616   -0.731033
   10          1             0       -0.580535   -1.122833    0.798557
   11          1             0       -0.532256   -0.939739   -1.030405
   12          1             0       -2.482482    0.483485    0.914341
   13          1             0       -2.435003    0.665783   -0.924379
 ---------------------------------------------------------------------
 SCF Done:  E(UB+HF-LYP) =  -157.736970567     A.U. after   13 cycles
                          Input orientation:                          
 ---------------------------------------------------------------------
 Center     Atomic     Atomic              Coordinates (Angstroms)
 Number     Number      Type              X           Y           Z
 ---------------------------------------------------------------------
    1          6             0        2.151462   -0.292642   -0.013263
    2          6             0        1.034675    0.697483    0.111815
    3          6             0       -0.909239   -0.572212   -0.074193
    4          6             0       -2.016990    0.213495   -0.033732
    5          1             0        3.131001    0.158359    0.219348
    6          1             0        2.218725   -0.705759   -1.026356
    7          1             0        2.027811   -1.132700    0.683259
    8          1             0        0.830788    1.122117    1.091486
    9          1             0        0.840593    1.366582   -0.722012
   10          1             0       -0.584018   -1.116157    0.808563
   11          1             0       -0.532264   -0.948345   -1.021558
   12          1             0       -2.485219    0.491682    0.906770
   13          1             0       -2.434366    0.658113   -0.933365
 ---------------------------------------------------------------------
 SCF Done:  E(UB+HF-LYP) =  -157.736973349     A.U. after   11 cycles
                          Input orientation:                          
 ---------------------------------------------------------------------
 Center     Atomic     Atomic              Coordinates (Angstroms)
 Number     Number      Type              X           Y           Z
 ---------------------------------------------------------------------
    1          6             0        2.151379   -0.292693   -0.015044
    2          6             0        1.034376    0.696961    0.112211
    3          6             0       -0.909747   -0.572521   -0.072241
    4          6             0       -2.017381    0.213591   -0.034815
    5          1             0        3.130244    0.158476    0.220322
    6          1             0        2.220238   -0.702883   -1.029184
    7          1             0        2.028038   -1.134622    0.679258
    8          1             0        0.832349    1.119781    1.093125
    9          1             0        0.841085    1.368893   -0.719498
   10          1             0       -0.585126   -1.113737    0.812398
   11          1             0       -0.532060   -0.951276   -1.018258
   12          1             0       -2.486458    0.494354    0.904522
   13          1             0       -2.433979    0.655691   -0.936034
 ---------------------------------------------------------------------
 SCF Done:  E(UB+HF-LYP) =  -157.736974521     A.U. after   11 cycles
                          Input orientation:                          
 ---------------------------------------------------------------------
 Center     Atomic     Atomic              Coordinates (Angstroms)
 Number     Number      Type              X           Y           Z
 ---------------------------------------------------------------------
    1          6             0        2.151680   -0.292815   -0.016368
    2          6             0        1.034098    0.696007    0.112928
    3          6             0       -0.910314   -0.572459   -0.070741
    4          6             0       -2.017964    0.213827   -0.035811
    5          1             0        3.129796    0.159248    0.220576
    6          1             0        2.221488   -0.700723   -1.031338
    7          1             0        2.029384   -1.136203    0.676351
    8          1             0        0.834019    1.117967    1.094669
    9          1             0        0.840937    1.369722   -0.717387
   10          1             0       -0.586445   -1.111808    0.815293
   11          1             0       -0.532081   -0.953293   -1.015690
   12          1             0       -2.487848    0.496442    0.902557
   13          1             0       -2.433794    0.654102   -0.938279
 ---------------------------------------------------------------------
 SCF Done:  E(UB+HF-LYP) =  -157.736975216     A.U. after   10 cycles
                          Input orientation:                          
 ---------------------------------------------------------------------
 Center     Atomic     Atomic              Coordinates (Angstroms)
 Number     Number      Type              X           Y           Z
 ---------------------------------------------------------------------
    1          6             0        2.152266   -0.292815   -0.017208
    2          6             0        1.034077    0.695160    0.113717
    3          6             0       -0.911155   -0.572563   -0.069813
    4          6             0       -2.018503    0.214160   -0.036601
    5          1             0        3.129894    0.160220    0.220023
    6          1             0        2.222249   -0.699484   -1.032631
    7          1             0        2.031487   -1.137003    0.674814
    8          1             0        0.835001    1.116441    1.095970
    9          1             0        0.840326    1.369645   -0.715834
   10          1             0       -0.587911   -1.110770    0.817142
   11          1             0       -0.532255   -0.954508   -1.014021
   12          1             0       -2.488953    0.498062    0.901097
   13          1             0       -2.433566    0.653469   -0.939892
 ---------------------------------------------------------------------
 SCF Done:  E(UB+HF-LYP) =  -157.736975598     A.U. after   10 cycles
                          Input orientation:                          
 ---------------------------------------------------------------------
 Center     Atomic     Atomic              Coordinates (Angstroms)
 Number     Number      Type              X           Y           Z
 ---------------------------------------------------------------------
    1          6             0        2.152712   -0.292796   -0.017871
    2          6             0        1.033821    0.694253    0.114342
    3          6             0       -0.911714   -0.572612   -0.068962
    4          6             0       -2.018795    0.214555   -0.037213
    5          1             0        3.129924    0.161093    0.219505
    6          1             0        2.222853   -0.698427   -1.033691
    7          1             0        2.033224   -1.137692    0.673512
    8          1             0        0.835602    1.115193    1.096928
    9          1             0        0.839494    1.369228   -0.714675
   10          1             0       -0.589145   -1.110002    0.818714
   11          1             0       -0.532048   -0.955308   -1.012544
   12          1             0       -2.489919    0.499288    0.899892
   13          1             0       -2.433050    0.653241   -0.941177
 ---------------------------------------------------------------------
 SCF Done:  E(UB+HF-LYP) =  -157.736975852     A.U. after    9 cycles
                          Input orientation:                          
 ---------------------------------------------------------------------
 Center     Atomic     Atomic              Coordinates (Angstroms)
 Number     Number      Type              X           Y           Z
 ---------------------------------------------------------------------
    1          6             0        2.153093   -0.292770   -0.018286
    2          6             0        1.033703    0.693615    0.114894
    3          6             0       -0.912128   -0.572644   -0.068412
    4          6             0       -2.018963    0.214883   -0.037671
    5          1             0        3.130062    0.161843    0.218725
    6          1             0        2.222961   -0.697965   -1.034295
    7          1             0        2.034717   -1.137974    0.672912
    8          1             0        0.835973    1.114306    1.097683
    9          1             0        0.838634    1.368677   -0.713869
   10          1             0       -0.590155   -1.109666    0.819691
   11          1             0       -0.531747   -0.955642   -1.011566
   12          1             0       -2.490679    0.500000    0.899019
   13          1             0       -2.432512    0.653352   -0.942063
 ---------------------------------------------------------------------
 SCF Done:  E(UB+HF-LYP) =  -157.736976023     A.U. after    8 cycles
                          Input orientation:                          
 ---------------------------------------------------------------------
 Center     Atomic     Atomic              Coordinates (Angstroms)
 Number     Number      Type              X           Y           Z
 ---------------------------------------------------------------------
    1          6             0        2.153379   -0.292738   -0.018582
    2          6             0        1.033590    0.693109    0.115371
    3          6             0       -0.912373   -0.572643   -0.068000
    4          6             0       -2.019013    0.215180   -0.038027
    5          1             0        3.130217    0.162483    0.217800
    6          1             0        2.222766   -0.697874   -1.034646
    7          1             0        2.035995   -1.138000    0.672713
    8          1             0        0.836227    1.113661    1.098287
    9          1             0        0.837691    1.368044   -0.713286
   10          1             0       -0.591028   -1.109609    0.820353
   11          1             0       -0.531277   -0.955653   -1.010846
   12          1             0       -2.491364    0.500331    0.898331
   13          1             0       -2.431851    0.653722   -0.942707
 ---------------------------------------------------------------------
 SCF Done:  E(UB+HF-LYP) =  -157.736976170     A.U. after    8 cycles
                          Input orientation:                          
 ---------------------------------------------------------------------
 Center     Atomic     Atomic              Coordinates (Angstroms)
 Number     Number      Type              X           Y           Z
 ---------------------------------------------------------------------
    1          6             0        2.153484   -0.292723   -0.018370
    2          6             0        1.033485    0.692901    0.115498
    3          6             0       -0.912243   -0.572513   -0.068244
    4          6             0       -2.018848    0.215391   -0.037941
    5          1             0        3.130381    0.162942    0.216862
[...]
 ---------------------------------------------------------------------
 SCF Done:  E(UB+HF-LYP) =  -157.736972071     A.U. after    9 cycles
    -- Stationary point found.
                          Input orientation:                          
 ---------------------------------------------------------------------
 Center     Atomic     Atomic              Coordinates (Angstroms)
 Number     Number      Type              X           Y           Z
 ---------------------------------------------------------------------
    1          6             0        2.126535   -0.391024   -0.249255
    2          6             0        0.925506    0.372585   -0.733718
    3          6             0       -0.813513   -0.273258    0.706555
    4          6             0       -1.960235    0.396090    0.422244
    5          1             0        2.973571   -0.268040   -0.945483
    6          1             0        1.925862   -1.466149   -0.149142
    7          1             0        2.475855   -0.024224    0.722748
    8          1             0        0.870406    1.440021   -0.556843
    9          1             0        0.446683    0.022767   -1.654738
   10          1             0       -0.186797    0.032191    1.527737
   11          1             0       -0.661335   -1.291954    0.356224
   12          1             0       -2.181799    1.362901    0.866541
   13          1             0       -2.667784    0.028107   -0.316108
 ---------------------------------------------------------------------
 SCF Done:  E(UB+HF-LYP) =  -157.736742346     A.U. after   14 cycles
                          Input orientation:                          
 ---------------------------------------------------------------------
 Center     Atomic     Atomic              Coordinates (Angstroms)
 Number     Number      Type              X           Y           Z
 ---------------------------------------------------------------------
    1          6             0        2.124918   -0.386064   -0.252680
    2          6             0        0.914752    0.351363   -0.736578
    3          6             0       -0.812543   -0.268525    0.713822
    4          6             0       -1.958613    0.399353    0.424693
    5          1             0        2.991398   -0.240221   -0.920364
    6          1             0        1.947746   -1.468167   -0.203376
    7          1             0        2.435093   -0.048666    0.743507
    8          1             0        0.869254    1.424936   -0.571948
    9          1             0        0.451029    0.020739   -1.662669
   10          1             0       -0.178300    0.048945    1.538566
   11          1             0       -0.665993   -1.289861    0.373000
   12          1             0       -2.178593    1.370331    0.860656
   13          1             0       -2.667191    0.025850   -0.309869
 ---------------------------------------------------------------------
 SCF Done:  E(UB+HF-LYP) =  -157.737068495     A.U. after   14 cycles
                          Input orientation:                          
 ---------------------------------------------------------------------
 Center     Atomic     Atomic              Coordinates (Angstroms)
 Number     Number      Type              X           Y           Z
 ---------------------------------------------------------------------
    1          6             0        2.120482   -0.392119   -0.255151
    2          6             0        0.915800    0.358802   -0.733434
    3          6             0       -0.807141   -0.260074    0.717880
    4          6             0       -1.960250    0.393069    0.421201
    5          1             0        2.987302   -0.243194   -0.921545
    6          1             0        1.938804   -1.474125   -0.221431
    7          1             0        2.429922   -0.072615    0.747159
    8          1             0        0.878955    1.431587   -0.560975
    9          1             0        0.452298    0.040174   -1.664102
   10          1             0       -0.176620    0.073320    1.537897
   11          1             0       -0.651417   -1.285194    0.392393
   12          1             0       -2.188980    1.367882    0.843872
   13          1             0       -2.666197    0.002503   -0.307002
 ---------------------------------------------------------------------
 SCF Done:  E(UB+HF-LYP) =  -157.737074813     A.U. after   12 cycles
                          Input orientation:                          
 ---------------------------------------------------------------------
 Center     Atomic     Atomic              Coordinates (Angstroms)
 Number     Number      Type              X           Y           Z
 ---------------------------------------------------------------------
    1          6             0        2.121413   -0.392981   -0.256292
    2          6             0        0.916264    0.358735   -0.731819
    3          6             0       -0.807898   -0.259012    0.719245
    4          6             0       -1.961033    0.392827    0.420089
    5          1             0        2.987028   -0.243164   -0.924044
    6          1             0        1.939713   -1.475018   -0.223632
    7          1             0        2.432531   -0.074424    0.745779
    8          1             0        0.879722    1.431168   -0.557588
    9          1             0        0.451296    0.041389   -1.662174
   10          1             0       -0.178675    0.075856    1.539450
   11          1             0       -0.650593   -1.284147    0.395015
   12          1             0       -2.191250    1.367803    0.841546
   13          1             0       -2.665562    0.000981   -0.308814
 ---------------------------------------------------------------------
 SCF Done:  E(UB+HF-LYP) =  -157.737075136     A.U. after   10 cycles
                          Input orientation:                          
 ---------------------------------------------------------------------
 Center     Atomic     Atomic              Coordinates (Angstroms)
 Number     Number      Type              X           Y           Z
 ---------------------------------------------------------------------
    1          6             0        2.121547   -0.393297   -0.256672
    2          6             0        0.916209    0.358750   -0.731223
    3          6             0       -0.808062   -0.258710    0.719831
    4          6             0       -1.961187    0.392704    0.419651
    5          1             0        2.986839   -0.242639   -0.924681
    6          1             0        1.940048   -1.475389   -0.224946
    7          1             0        2.433184   -0.075649    0.745534
    8          1             0        0.880034    1.431127   -0.556529
    9          1             0        0.451100    0.042133   -1.661758
   10          1             0       -0.179218    0.076943    1.539984
   11          1             0       -0.650507   -1.284131    0.396658
   12          1             0       -2.191745    1.367989    0.840213
   13          1             0       -2.665283    0.000183   -0.309302
 ---------------------------------------------------------------------
 SCF Done:  E(UB+HF-LYP) =  -157.737075159     A.U. after    9 cycles
    -- Stationary point found.
                          Input orientation:                          
 ---------------------------------------------------------------------
 Center     Atomic     Atomic              Coordinates (Angstroms)
 Number     Number      Type              X           Y           Z
 ---------------------------------------------------------------------
    1          6             0        2.121518   -0.399787   -0.257515
    2          6             0        0.923593    0.369225   -0.738805
    3          6             0       -0.806714   -0.259099    0.717347
    4          6             0       -1.959042    0.395727    0.421540
    5          1             0        2.994178   -0.221354   -0.908960
    6          1             0        1.937952   -1.481451   -0.223148
    7          1             0        2.431105   -0.080596    0.744834
    8          1             0        0.877136    1.437899   -0.564591
    9          1             0        0.433661    0.018441   -1.652962
   10          1             0       -0.179670    0.069573    1.531574
   11          1             0       -0.648664   -1.285719    0.389130
   12          1             0       -2.186226    1.370600    0.844883
   13          1             0       -2.665869    0.006554   -0.306566
 ---------------------------------------------------------------------
 SCF Done:  E(UB+HF-LYP) =  -157.736816062     A.U. after   13 cycles
                          Input orientation:                          
 ---------------------------------------------------------------------
 Center     Atomic     Atomic              Coordinates (Angstroms)
 Number     Number      Type              X           Y           Z
 ---------------------------------------------------------------------
    1          6             0        2.119050   -0.394799   -0.259406
    2          6             0        0.912478    0.348594   -0.742288
    3          6             0       -0.803538   -0.253726    0.723114
    4          6             0       -1.956509    0.398829    0.424672
    5          1             0        3.008721   -0.194502   -0.880950
    6          1             0        1.961823   -1.480446   -0.276781
    7          1             0        2.386004   -0.108486    0.765509
    8          1             0        0.873786    1.422749   -0.579759
    9          1             0        0.438785    0.015977   -1.662406
   10          1             0       -0.168988    0.086162    1.538215
   11          1             0       -0.651457   -1.281730    0.405635
   12          1             0       -2.181658    1.377955    0.839154
   13          1             0       -2.665539    0.003438   -0.297948
 ---------------------------------------------------------------------
 SCF Done:  E(UB+HF-LYP) =  -157.737099290     A.U. after   20 cycles
                          Input orientation:                          
 ---------------------------------------------------------------------
 Center     Atomic     Atomic              Coordinates (Angstroms)
 Number     Number      Type              X           Y           Z
 ---------------------------------------------------------------------
    1          6             0        2.116272   -0.405778   -0.265366
    2          6             0        0.916096    0.359727   -0.731625
    3          6             0       -0.799971   -0.240312    0.733442
    4          6             0       -1.960964    0.388865    0.415778
    5          1             0        3.000256   -0.198218   -0.892578
    6          1             0        1.949717   -1.489401   -0.306692
    7          1             0        2.391685   -0.146854    0.764497
    8          1             0        0.892303    1.432407   -0.555673
    9          1             0        0.436944    0.046628   -1.656150
   10          1             0       -0.174829    0.125676    1.543133
   11          1             0       -0.631681   -1.273608    0.441549
   12          1             0       -2.201930    1.373706    0.807198
   13          1             0       -2.660941   -0.032825   -0.300753
 ---------------------------------------------------------------------
 SCF Done:  E(UB+HF-LYP) =  -157.737108247     A.U. after   12 cycles
                          Input orientation:                          
 ---------------------------------------------------------------------
 Center     Atomic     Atomic              Coordinates (Angstroms)
 Number     Number      Type              X           Y           Z
 ---------------------------------------------------------------------
    1          6             0        2.115410   -0.407818   -0.267786
    2          6             0        0.916401    0.360605   -0.731430
    3          6             0       -0.799182   -0.237841    0.735416
    4          6             0       -1.961530    0.387265    0.414893
    5          1             0        3.001554   -0.201104   -0.892109
    6          1             0        1.947341   -1.491128   -0.309927
    7          1             0        2.391246   -0.150364    0.762400
    8          1             0        0.893893    1.432415   -0.550569
    9          1             0        0.436566    0.052145   -1.656915
   10          1             0       -0.175950    0.132534    1.544987
   11          1             0       -0.627269   -1.270746    0.445125
   12          1             0       -2.206169    1.371988    0.804340
   13          1             0       -2.659353   -0.037937   -0.301663
 ---------------------------------------------------------------------
 SCF Done:  E(UB+HF-LYP) =  -157.737108893     A.U. after   17 cycles
                          Input orientation:                          
 ---------------------------------------------------------------------
 Center     Atomic     Atomic              Coordinates (Angstroms)
 Number     Number      Type              X           Y           Z
 ---------------------------------------------------------------------
    1          6             0        2.122564   -0.386387   -0.251946
    2          6             0        0.908386    0.337956   -0.748769
    3          6             0       -0.808905   -0.266042    0.714258
    4          6             0       -1.953301    0.408414    0.431681
    5          1             0        3.010432   -0.180577   -0.873865
    6          1             0        1.981341   -1.474171   -0.254466
    7          1             0        2.386102   -0.084329    0.769463
    8          1             0        0.857162    1.414275   -0.601135
    9          1             0        0.441931   -0.010160   -1.667459
   10          1             0       -0.164438    0.053789    1.529601
   11          1             0       -0.675364   -1.292210    0.381047
   12          1             0       -2.161007    1.384917    0.861228
   13          1             0       -2.671944    0.034541   -0.292877
 ---------------------------------------------------------------------
 SCF Done:  E(UB+HF-LYP) =  -157.737090086     A.U. after   20 cycles
                          Input orientation:                          
 ---------------------------------------------------------------------
 Center     Atomic     Atomic              Coordinates (Angstroms)
 Number     Number      Type              X           Y           Z
 ---------------------------------------------------------------------
    1          6             0        2.117467   -0.402363   -0.263339
    2          6             0        0.914228    0.355709   -0.734288
    3          6             0       -0.800883   -0.244248    0.730070
    4          6             0       -1.959426    0.392559    0.418102
    5          1             0        3.002436   -0.196234   -0.889564
    6          1             0        1.955048   -1.486831   -0.297398
    7          1             0        2.390977   -0.135345    0.765003
    8          1             0        0.885784    1.429128   -0.563428
    9          1             0        0.436566    0.036001   -1.657339
   10          1             0       -0.173575    0.112910    1.542181
   11          1             0       -0.637692   -1.275814    0.429892
   12          1             0       -2.195878    1.375275    0.817541
   13          1             0       -2.662092   -0.020732   -0.300671
 ---------------------------------------------------------------------
 SCF Done:  E(UB+HF-LYP) =  -157.737109092     A.U. after   12 cycles
                          Input orientation:                          
 ---------------------------------------------------------------------
 Center     Atomic     Atomic              Coordinates (Angstroms)
 Number     Number      Type              X           Y           Z
 ---------------------------------------------------------------------
    1          6             0        2.116486   -0.404327   -0.264837
    2          6             0        0.915649    0.358155   -0.733691
    3          6             0       -0.800175   -0.241917    0.731778
    4          6             0       -1.960353    0.390247    0.417149
    5          1             0        3.001832   -0.199085   -0.890778
    6          1             0        1.950829   -1.488243   -0.300838
    7          1             0        2.391163   -0.140299    0.763963
    8          1             0        0.889647    1.430869   -0.558982
    9          1             0        0.436942    0.042228   -1.657266
   10          1             0       -0.174366    0.120080    1.543042
   11          1             0       -0.633373   -1.273811    0.434770
   12          1             0       -2.200030    1.373541    0.813239
   13          1             0       -2.661294   -0.027424   -0.300787
 ---------------------------------------------------------------------
 SCF Done:  E(UB+HF-LYP) =  -157.737109435     A.U. after   11 cycles
                          Input orientation:                          
 ---------------------------------------------------------------------
 Center     Atomic     Atomic              Coordinates (Angstroms)
 Number     Number      Type              X           Y           Z
 ---------------------------------------------------------------------
    1          6             0        2.116402   -0.405061   -0.265512
    2          6             0        0.915865    0.358722   -0.732928
    3          6             0       -0.800066   -0.241022    0.732542
    4          6             0       -1.960706    0.389622    0.416539
    5          1             0        3.001671   -0.199543   -0.891504
    6          1             0        1.950223   -1.488856   -0.302816
    7          1             0        2.391554   -0.142429    0.763526
    8          1             0        0.890901    1.431274   -0.557072
    9          1             0        0.436644    0.044282   -1.656718
   10          1             0       -0.174976    0.122640    1.543585
   11          1             0       -0.632113   -1.273142    0.437073
   12          1             0       -2.201452    1.373271    0.811099
   13          1             0       -2.660989   -0.029745   -0.301052
 ---------------------------------------------------------------------
 SCF Done:  E(UB+HF-LYP) =  -157.737109454     A.U. after   17 cycles
    -- Stationary point found.
                          Input orientation:                          
 ---------------------------------------------------------------------
 Center     Atomic     Atomic              Coordinates (Angstroms)
 Number     Number      Type              X           Y           Z
 ---------------------------------------------------------------------
    1          6             0        2.116402   -0.405061   -0.265512
    2          6             0        0.915865    0.358722   -0.732928
    3          6             0       -0.800066   -0.241022    0.732542
    4          6             0       -1.960706    0.389622    0.416539
    5          1             0        3.001671   -0.199543   -0.891504
    6          1             0        1.950223   -1.488856   -0.302816
    7          1             0        2.391554   -0.142429    0.763526
    8          1             0        0.890901    1.431274   -0.557072
    9          1             0        0.436644    0.044282   -1.656718
   10          1             0       -0.174976    0.122640    1.543585
   11          1             0       -0.632113   -1.273142    0.437073
   12          1             0       -2.201452    1.373271    0.811099
   13          1             0       -2.660989   -0.029745   -0.301052
 ---------------------------------------------------------------------
