no comment                                                              
Freq      ONIOM(B3LYP/6-31+G(d):MNDO/ZDO)                             Mixed               
Number of atoms                            I              181
Charge                                     I                0
Multiplicity                               I                1
Number of electrons                        I                0
Number of alpha electrons                  I                0
Number of beta electrons                   I                0
Number of basis functions                  I                0
Number of independant functions            I                0
Number of point charges in /Mol/           I                0
Number of translation vectors              I                0
Info1-9                                    I   N=           9
         191         190           0           0           0         201
           6           8         401
Num ILSW                                   I              100
ILSW                                       I   N=         100
           0           0           0           1           0           0
           0           0           0           0           0     1000000
           5           0           0           0           0           0
           0     1000000           0           0           1           0
           1           0           0           0     1000000           0
           0           0      100000        8193          -1           0
           0           0           0           0           0           0
           0           0           0           1           0           0
           0           0           1     1000000     1000000           0
           0           0           0           0           0           0
           0           0           0           0           0           0
           0           0           0           0           0           0
           0           0           0           0           0           0
           0           0           0           0           0           0
           0           0           0           0           0           0
           0           0           0           0           0           0
           0           0           0           0
Number of contracted shells                I              181
Highest angular momentum                   I                1
Largest degree of contraction              I                3
Number of primitive shells                 I              543
Pure/Cartesian d shells                    I                0
Pure/Cartesian f shells                    I                0
Virial Ratio                               R      2.004656072428971E+00
SCF Energy                                 R     -9.036951694356303E-01
Total Energy                               R     -3.053768643971363E+03
RMS Force                                  R      2.961830262932629E-06
RMS Density                                R      2.964909433909357E-09
Atomic numbers                             I   N=         181
           8          13           8          14           8          14
           8          14           8          14           8          14
           8          14           8          14           8          14
           8          14           8          14           8          14
           8          14           8          14           8           8
          14           8          14           8          14           8
          14           8          14           8          14           8
          14           8           8           8          14           8
           8          14           8           8           8          14
           8          14           8           8          14           8
          14           8           8          14           8           8
          14           8          14           8          14           8
           8           8           8           8          14           8
          14           8          14           8          14           8
          14           8          14           8          14           8
           8           8          14           8          14           8
          14           8          14           8          14           8
          14           8          14           8           8          14
           8           8           8           8           8           8
           1           1           1           1           1           1
           1           1           1           1           1           1
           1           1           1           1           1           1
           1           1           1           1           1           1
           1           1           1           1           1           1
           1           1           1           1           1           1
           1           1           1           1           1           1
           1           1           1           1           1           1
           6           6           6           6           6           6
           1           1           1           1           1           1
           1           1           1           1           1           1
           1
Nuclear charges                            R   N=         181
  8.00000000E+00  1.30000000E+01  8.00000000E+00  1.40000000E+01  8.00000000E+00
  1.40000000E+01  8.00000000E+00  1.40000000E+01  8.00000000E+00  1.40000000E+01
  8.00000000E+00  1.40000000E+01  8.00000000E+00  1.40000000E+01  8.00000000E+00
  1.40000000E+01  8.00000000E+00  1.40000000E+01  8.00000000E+00  1.40000000E+01
  8.00000000E+00  1.40000000E+01  8.00000000E+00  1.40000000E+01  8.00000000E+00
  1.40000000E+01  8.00000000E+00  1.40000000E+01  8.00000000E+00  8.00000000E+00
  1.40000000E+01  8.00000000E+00  1.40000000E+01  8.00000000E+00  1.40000000E+01
  8.00000000E+00  1.40000000E+01  8.00000000E+00  1.40000000E+01  8.00000000E+00
  1.40000000E+01  8.00000000E+00  1.40000000E+01  8.00000000E+00  8.00000000E+00
  8.00000000E+00  1.40000000E+01  8.00000000E+00  8.00000000E+00  1.40000000E+01
  8.00000000E+00  8.00000000E+00  8.00000000E+00  1.40000000E+01  8.00000000E+00
  1.40000000E+01  8.00000000E+00  8.00000000E+00  1.40000000E+01  8.00000000E+00
  1.40000000E+01  8.00000000E+00  8.00000000E+00  1.40000000E+01  8.00000000E+00
  8.00000000E+00  1.40000000E+01  8.00000000E+00  1.40000000E+01  8.00000000E+00
  1.40000000E+01  8.00000000E+00  8.00000000E+00  8.00000000E+00  8.00000000E+00
  8.00000000E+00  1.40000000E+01  8.00000000E+00  1.40000000E+01  8.00000000E+00
  1.40000000E+01  8.00000000E+00  1.40000000E+01  8.00000000E+00  1.40000000E+01
  8.00000000E+00  1.40000000E+01  8.00000000E+00  1.40000000E+01  8.00000000E+00
  8.00000000E+00  8.00000000E+00  1.40000000E+01  8.00000000E+00  1.40000000E+01
  8.00000000E+00  1.40000000E+01  8.00000000E+00  1.40000000E+01  8.00000000E+00
  1.40000000E+01  8.00000000E+00  1.40000000E+01  8.00000000E+00  1.40000000E+01
  8.00000000E+00  8.00000000E+00  1.40000000E+01  8.00000000E+00  8.00000000E+00
  8.00000000E+00  8.00000000E+00  8.00000000E+00  8.00000000E+00  1.00000000E+00
  1.00000000E+00  1.00000000E+00  1.00000000E+00  1.00000000E+00  1.00000000E+00
  1.00000000E+00  1.00000000E+00  1.00000000E+00  1.00000000E+00  1.00000000E+00
  1.00000000E+00  1.00000000E+00  1.00000000E+00  1.00000000E+00  1.00000000E+00
  1.00000000E+00  1.00000000E+00  1.00000000E+00  1.00000000E+00  1.00000000E+00
  1.00000000E+00  1.00000000E+00  1.00000000E+00  1.00000000E+00  1.00000000E+00
  1.00000000E+00  1.00000000E+00  1.00000000E+00  1.00000000E+00  1.00000000E+00
  1.00000000E+00  1.00000000E+00  1.00000000E+00  1.00000000E+00  1.00000000E+00
  1.00000000E+00  1.00000000E+00  1.00000000E+00  1.00000000E+00  1.00000000E+00
  1.00000000E+00  1.00000000E+00  1.00000000E+00  1.00000000E+00  1.00000000E+00
  1.00000000E+00  1.00000000E+00  6.00000000E+00  6.00000000E+00  6.00000000E+00
  6.00000000E+00  6.00000000E+00  6.00000000E+00  1.00000000E+00  1.00000000E+00
  1.00000000E+00  1.00000000E+00  1.00000000E+00  1.00000000E+00  1.00000000E+00
  1.00000000E+00  1.00000000E+00  1.00000000E+00  1.00000000E+00  1.00000000E+00
  1.00000000E+00
Current cartesian coordinates              R   N=         543
  2.14289841E+00 -5.59888150E-02 -2.38171652E-01  3.35117796E+00  8.95340908E-01
  2.70110649E+00  6.58517022E+00  1.01822038E+00  2.93974299E+00  8.81001663E+00
 -6.64331269E-01  4.27112497E+00  8.65021572E+00 -6.05738423E-01  7.41247531E+00
  8.66132542E+00 -5.79860513E-01  1.04485131E+01  6.04331960E+00  6.65714645E-01
  1.14148434E+01  3.08011752E+00  1.29165238E+00  1.18128878E+01  2.69339638E+00
  4.31380634E+00  1.18555748E+01  3.65888956E+00  6.84833350E+00  1.04837055E+01
  3.89810999E+00  6.17183800E+00  7.53939309E+00  3.47399687E+00  6.40463903E+00
  4.43700135E+00  6.21810597E+00  7.49558174E+00  3.32714441E+00  9.16025837E+00
  8.17321677E+00  2.91629338E+00  9.53238324E+00  8.72638875E+00 -9.00870434E-02
  9.24801915E+00  8.05454575E+00 -3.06534368E+00  1.09046457E+01  5.55080793E+00
 -3.64648171E+00  1.28370570E+01  3.30560922E+00 -2.88008249E+00  1.14630693E+01
  6.13191656E-01 -3.23419071E+00  8.82630985E+00 -8.09069173E-01 -4.07586717E+00
  8.69163851E+00 -8.04446905E-01 -7.21147841E+00  8.85891896E+00 -9.63387989E-01
 -1.02469776E+01  6.24307122E+00  2.24626112E-01 -1.12951785E+01  3.31034475E+00
  8.46646444E-01 -1.18626292E+01  1.65383729E+00 -1.74334809E-01 -9.52541782E+00
  1.17171149E+00 -2.30863119E+00 -7.32428939E+00  2.59288379E+00 -1.40791967E+00
 -4.76754095E+00  3.43966249E+00  7.81868524E-01 -2.83665091E+00  6.50441278E+00
  9.18019545E-01 -2.84698960E+00  2.38920717E+00  3.59499042E+00 -3.52626867E+00
  3.62370097E+00  6.20749713E+00 -4.69868878E+00  1.58108274E+00  8.51872855E+00
 -4.24347454E+00  9.89229934E-01  1.13197694E+01 -3.22708156E+00  1.53559889E+00
  1.15081921E+01 -2.31948784E-01  9.09370106E-01  1.14761140E+01  2.76360918E+00
 -2.08731603E+00  1.19071832E+01  3.10106324E+00 -4.58739726E+00  1.31665023E+01
  4.21287228E+00 -6.95421497E+00  1.14776012E+01  3.34368707E+00 -9.85531875E+00
  1.10006588E+01  2.57891491E+00 -1.00369630E+01  1.02442430E+01 -3.38276115E-01
 -9.77609387E+00  1.08863455E+01 -3.27530170E+00 -6.85165387E+00  1.13215627E+01
 -3.98145834E+00 -4.47293088E+00  1.29778907E+01 -4.87740207E+00 -1.98466232E+00
  1.17504890E+01 -3.70244784E+00  6.33229834E+00  7.26594600E+00 -3.54162458E+00
  4.04851141E+00  5.85615359E+00 -7.77090348E+00  3.88960433E+00  6.43368224E+00
 -1.07424052E+01  2.94435390E+00  3.85790425E+00 -1.20402578E+01  1.35045272E+01
  3.72403994E+00  5.38080428E-02  1.27701097E+01  3.41383194E+00  2.99829805E+00
  1.08030502E+01  5.68150895E+00  3.59621117E+00  1.15142279E+01  6.83604742E-01
  3.45509210E+00  8.89217817E+00 -3.65999317E+00  3.38964899E+00  8.16459207E+00
 -6.59343584E+00  3.11133768E+00  7.50037980E+00 -7.20847745E+00  2.00176781E-01
  8.21522539E+00 -6.70701594E+00 -2.70623902E+00  8.86497935E+00 -3.75663754E+00
 -3.09566811E+00  5.65746973E+00 -6.94361724E+00  4.80148417E+00  4.03408916E+00
 -7.11782922E+00  7.35286768E+00  6.07755775E+00 -7.50389646E+00  9.59939111E+00
  7.94534793E+00 -6.47559630E+00  1.17697095E+01  8.57560936E+00 -3.53402403E+00
  1.12844920E+01  2.43916973E+00 -4.66512345E+00  8.23507687E+00  1.02380262E+00
 -2.02356601E+00  7.28012267E+00  2.01087838E+00 -1.47830631E+00  4.45193397E+00
  2.12858006E+00 -9.48212985E+00  7.19044949E+00  7.61752511E-01 -1.17272549E+01
  8.69614548E+00 -2.11942600E+00 -1.18490572E+01  7.73753466E+00 -4.60997357E+00
 -1.01544189E+01  7.36557419E+00 -3.86939937E+00 -7.19902328E+00  7.50148519E+00
 -4.21240738E+00 -4.31711534E+00  8.45793228E+00 -2.05175500E+00 -2.54459566E+00
  7.32973365E+00  1.61495428E+00  1.97996041E-01  9.38888318E+00  1.49036077E+00
  8.78702053E+00  4.00657276E+00  2.15436334E+00  3.92404465E+00  3.14385798E+00
 -1.09434004E+01  8.72063998E+00  4.25570670E+00 -1.20132499E+01  7.91158018E+00
  6.96498627E+00 -1.15882826E+01  4.92710736E+00  7.22601603E+00 -1.25910279E+01
  2.25567143E+00  8.23609544E+00 -1.04014778E+01  2.14914629E-01  7.75933643E+00
 -9.79644607E+00 -2.72836783E+00  7.28496037E+00 -1.08619625E+01 -3.48708722E+00
  4.52287996E+00 -1.16498006E+01 -5.93335283E+00  2.89575395E+00 -1.11227144E+01
 -5.47072330E+00 -6.29430172E-02 -1.16649260E+01 -6.09699555E+00 -2.98818994E+00
 -9.95021492E+00 -8.52809419E+00 -3.74114754E+00 -8.35096990E+00 -1.10090003E+01
 -2.87577958E+00 -7.85183843E+00 -1.07264031E+01  9.68030918E-02 -8.40727240E+00
 -1.08962631E+01  3.07077849E+00 -9.98972909E+00 -8.35618013E+00  3.78191834E+00
 -6.84060070E+00 -3.29153076E+00  7.33341673E+00  5.73127110E+00 -7.08869907E+00
 -4.43581464E+00  4.17957162E+00 -7.41103912E+00 -7.01356550E+00  2.28838664E+00
 -9.77401695E+00 -6.79217274E+00  9.41968137E-01 -1.20666629E+01 -8.24903443E+00
 -1.95568689E+00 -1.21378509E+01 -7.34507637E+00 -4.45052981E+00 -1.04222857E+01
 -7.10781748E+00 -3.69114906E+00 -7.47591162E+00 -7.36691216E+00 -4.01481761E+00
 -4.61431256E+00 -8.37737329E+00 -6.68167851E+00 -3.56287842E+00 -7.39288644E+00
 -9.64793249E+00 -3.02127349E+00 -7.42304080E+00 -1.02213586E+01 -9.24323176E-02
 -8.00897496E+00 -1.23991905E+01  1.92371836E+00 -8.63345008E+00 -1.14154161E+01
  4.63073405E+00 -7.70656964E+00 -1.18429005E+01  7.62386560E+00 -7.57870888E+00
 -1.08187672E+01  8.53892014E+00 -4.88731935E+00  6.28081292E+00 -7.85006783E+00
 -9.19349309E+00  8.19784369E+00 -6.91881455E+00 -1.13625453E+01  8.80523755E+00
 -3.95390227E+00 -1.09413348E+01  2.56596658E+00 -5.01756871E+00 -8.04377616E+00
 -5.83183835E+00 -1.08051537E+01  4.65873615E+00 -1.08558549E+01 -3.72055721E+00
 -4.70890086E+00 -1.89366807E+00 -2.83749187E+00 -7.10174768E+00 -5.73902823E+00
 -1.09418432E+01 -4.40853645E+00 -1.41182365E+01 -6.50470777E+00  3.27364059E+00
  1.00558846E+01  1.01808184E+01  4.32710622E+00  1.91810430E+00 -1.38950372E+01
  8.16438033E+00  7.25144730E-01 -1.11198497E+01  1.12155057E+01 -6.27223525E+00
 -1.06379394E+01  9.28409409E+00 -9.76955327E+00 -1.30336416E+01  3.56778591E+00
  9.66304025E-01 -1.15189353E+01 -1.07840567E+01  2.10101846E+00 -1.42058839E+01
 -7.62499206E+00 -6.05865084E+00 -1.09879582E+01 -9.04529699E+00 -9.68670011E+00
 -1.31705334E+01 -3.32100095E+00 -1.41274791E+01 -6.74222367E+00 -3.36279791E+00
  2.29918807E+00  1.30763266E+01 -4.61245679E+00 -4.64622257E+00  1.53732622E+01
 -3.90181205E+00 -4.44253652E+00  1.30556888E+01 -7.46900461E+00 -1.10738614E+01
  1.30652356E+01 -3.84756747E+00 -1.05724944E+01  8.83393474E+00 -9.47391144E+00
 -1.46466097E+01  1.31506589E+00 -7.46565413E+00 -1.27461348E+01  2.04568884E+00
 -1.11920486E+01 -1.07386106E+01 -4.52690524E+00 -9.22133254E+00 -3.96562993E+00
 -4.65616811E+00 -1.09813044E+01 -1.09596273E+01 -4.16277959E+00  9.10515592E+00
 -1.30083588E+01  2.47932429E+00  1.07725142E+01 -1.48055848E+01  1.60252725E+00
  7.03131566E+00 -1.45426483E+01  8.43919169E+00  6.99503669E+00 -1.07940251E+01
  9.20601236E+00  8.83786172E+00 -1.11594509E+01  1.31966850E+01  3.02626599E+00
 -4.62144824E+00  1.33724730E+01  6.79763968E+00 -4.73661951E+00  1.55026971E+01
  3.11347496E+00  2.18259953E+00  1.32909900E+01  4.06594229E+00  1.96162067E+00
  8.70298063E+00  1.09586579E+01  5.99563229E+00  7.35286206E+00  1.14166462E+01
 -1.43742303E+01  8.15523955E+00 -7.70011056E+00 -4.25172502E+00 -4.25130562E+00
  1.10290445E+01  2.17549619E+00  3.41312877E-01  1.39574341E+01  1.06432135E+01
  7.40838868E-01  1.14643694E+01  1.00807328E+01 -7.88374082E+00  1.15523305E+01
  6.74436084E+00 -6.73095311E+00  1.40386715E+01  1.02087523E+01 -8.01839137E+00
  3.80661895E+00  1.48052710E+01  3.49088744E+00  4.43987185E+00  1.48729251E+01
  3.29869473E+00 -4.33353133E+00  1.01209706E+01  9.98142958E+00 -4.59137879E+00
  6.26199297E+00  6.85399515E+00 -1.15813246E+01  2.19732244E+00  8.24833520E+00
 -1.12800985E+01  2.46502302E+00 -2.27870742E-01 -1.39330925E+01  1.08789323E+01
  3.10372485E-01 -1.12704117E+01  7.02406110E+00 -7.25380821E+00 -1.36428249E+01
  1.03263481E+01 -8.32814960E+00 -1.10497276E+01  1.02844812E+01 -8.13733829E+00
 -3.35814351E+00 -1.96775672E+00  9.99345707E-01 -1.64298478E-01 -2.87426588E+00
 -1.30853715E+00  1.11207924E+00 -6.12046204E+00  3.08625905E+00 -8.02595054E-01
 -4.93461734E+00  4.56107315E+00  9.17135096E-01 -5.05360772E+00  4.26948273E+00
  3.72581993E+00 -3.85625826E+00 -3.41315161E+00 -5.89741972E-01 -1.92042097E+00
  1.18234490E+00 -2.20180875E+00 -1.12147123E+00  2.53003144E+00  8.89263526E-01
 -4.25559899E+00 -7.70373393E-01  2.56035213E+00 -1.23239244E+00 -1.96380722E+00
  2.20291421E+00 -5.46019545E+00 -2.79490126E+00 -1.74159241E+00 -4.47108253E+00
 -5.01771996E+00  5.59831348E-01 -2.35319843E+00 -4.08757217E+00 -1.83731838E+00
 -6.01553311E+00  3.49924736E+00 -2.81157047E+00 -7.37262291E+00  1.55922426E+00
 -2.34688887E-01 -3.76406807E+00  6.10595640E+00  2.21198094E-01 -3.15378100E+00
  3.97982175E+00  4.50747680E+00 -5.76220024E+00  6.00937814E+00  4.59463097E+00
 -6.27767025E+00  2.71059661E+00  4.30197097E+00
Int Atom Types                             I   N=         181
           0           0           0           0           0           0
           0           0           0           0           0           0
           0           0           0           0           0           0
           0           0           0           0           0           0
           0           0           0           0           0           0
           0           0           0           0           0           0
           0           0           0           0           0           0
           0           0           0           0           0           0
           0           0           0           0           0           0
           0           0           0           0           0           0
           0           0           0           0           0           0
           0           0           0           0           0           0
           0           0           0           0           0           0
           0           0           0           0           0           0
           0           0           0           0           0           0
           0           0           0           0           0           0
           0           0           0           0           0           0
           0           0           0           0           0           0
           0           0           0           0           0           0
           0           0           0           0           0           0
           0           0           0           0           0           0
           0           0           0           0           0           0
           0           0           0           0           0           0
           0           0           0           0           0           0
           0           0           0           0           0           0
           0           0           0           0           0           0
           0           0           0           0           0           0
           0           0           0           0           0           0
           0           0           0           0           0           0
           0           0           0           0           0           0
           0
Force Field                                I                0
MM charges                                 R   N=         181
  0.00000000E+00  0.00000000E+00  0.00000000E+00  0.00000000E+00  0.00000000E+00
  0.00000000E+00  0.00000000E+00  0.00000000E+00  0.00000000E+00  0.00000000E+00
  0.00000000E+00  0.00000000E+00  0.00000000E+00  0.00000000E+00  0.00000000E+00
  0.00000000E+00  0.00000000E+00  0.00000000E+00  0.00000000E+00  0.00000000E+00
  0.00000000E+00  0.00000000E+00  0.00000000E+00  0.00000000E+00  0.00000000E+00
  0.00000000E+00  0.00000000E+00  0.00000000E+00  0.00000000E+00  0.00000000E+00
  0.00000000E+00  0.00000000E+00  0.00000000E+00  0.00000000E+00  0.00000000E+00
  0.00000000E+00  0.00000000E+00  0.00000000E+00  0.00000000E+00  0.00000000E+00
  0.00000000E+00  0.00000000E+00  0.00000000E+00  0.00000000E+00  0.00000000E+00
  0.00000000E+00  0.00000000E+00  0.00000000E+00  0.00000000E+00  0.00000000E+00
  0.00000000E+00  0.00000000E+00  0.00000000E+00  0.00000000E+00  0.00000000E+00
  0.00000000E+00  0.00000000E+00  0.00000000E+00  0.00000000E+00  0.00000000E+00
  0.00000000E+00  0.00000000E+00  0.00000000E+00  0.00000000E+00  0.00000000E+00
  0.00000000E+00  0.00000000E+00  0.00000000E+00  0.00000000E+00  0.00000000E+00
  0.00000000E+00  0.00000000E+00  0.00000000E+00  0.00000000E+00  0.00000000E+00
  0.00000000E+00  0.00000000E+00  0.00000000E+00  0.00000000E+00  0.00000000E+00
  0.00000000E+00  0.00000000E+00  0.00000000E+00  0.00000000E+00  0.00000000E+00
  0.00000000E+00  0.00000000E+00  0.00000000E+00  0.00000000E+00  0.00000000E+00
  0.00000000E+00  0.00000000E+00  0.00000000E+00  0.00000000E+00  0.00000000E+00
  0.00000000E+00  0.00000000E+00  0.00000000E+00  0.00000000E+00  0.00000000E+00
  0.00000000E+00  0.00000000E+00  0.00000000E+00  0.00000000E+00  0.00000000E+00
  0.00000000E+00  0.00000000E+00  0.00000000E+00  0.00000000E+00  0.00000000E+00
  0.00000000E+00  0.00000000E+00  0.00000000E+00  0.00000000E+00  0.00000000E+00
  0.00000000E+00  0.00000000E+00  0.00000000E+00  0.00000000E+00  0.00000000E+00
  0.00000000E+00  0.00000000E+00  0.00000000E+00  0.00000000E+00  0.00000000E+00
  0.00000000E+00  0.00000000E+00  0.00000000E+00  0.00000000E+00  0.00000000E+00
  0.00000000E+00  0.00000000E+00  0.00000000E+00  0.00000000E+00  0.00000000E+00
  0.00000000E+00  0.00000000E+00  0.00000000E+00  0.00000000E+00  0.00000000E+00
  0.00000000E+00  0.00000000E+00  0.00000000E+00  0.00000000E+00  0.00000000E+00
  0.00000000E+00  0.00000000E+00  0.00000000E+00  0.00000000E+00  0.00000000E+00
  0.00000000E+00  0.00000000E+00  0.00000000E+00  0.00000000E+00  0.00000000E+00
  0.00000000E+00  0.00000000E+00  0.00000000E+00  0.00000000E+00  0.00000000E+00
  0.00000000E+00  0.00000000E+00  0.00000000E+00  0.00000000E+00  0.00000000E+00
  0.00000000E+00  0.00000000E+00  0.00000000E+00  0.00000000E+00  0.00000000E+00
  0.00000000E+00  0.00000000E+00  0.00000000E+00  0.00000000E+00  0.00000000E+00
  0.00000000E+00  0.00000000E+00  0.00000000E+00  0.00000000E+00  0.00000000E+00
  0.00000000E+00
Integer atomic weights                     I   N=         181
          16          27          16          28          16          28
          16          28          16          28          16          28
          16          28          16          28          16          28
          16          28          16          28          16          28
          16          28          16          28          16          16
          28          16          28          16          28          16
          28          16          28          16          28          16
          28          16          16          16          28          16
          16          28          16          16          16          28
          16          28          16          16          28          16
          28          16          16          28          16          16
          28          16          28          16          28          16
          16          16          16          16          28          16
          28          16          28          16          28          16
          28          16          28          16          28          16
          16          16          28          16          28          16
          28          16          28          16          28          16
          28          16          28          16          16          28
          16          16          16          16          16          16
           1           1           1           1           1           1
           1           1           1           1           1           1
           1           1           1           1           1           1
           1           1           1           1           1           1
           1           1           1           1           1           1
           1           1           1           1           1           1
           1           1           1           1           1           1
           1           1           1           1           1           1
          12          12          12          12          12          12
           1           1           1           1           1           1
           1           1           1           1           1           1
           1
Real atomic weights                        R   N=         181
  1.59949146E+01  2.69815413E+01  1.59949146E+01  2.79769284E+01  1.59949146E+01
  2.79769284E+01  1.59949146E+01  2.79769284E+01  1.59949146E+01  2.79769284E+01
  1.59949146E+01  2.79769284E+01  1.59949146E+01  2.79769284E+01  1.59949146E+01
  2.79769284E+01  1.59949146E+01  2.79769284E+01  1.59949146E+01  2.79769284E+01
  1.59949146E+01  2.79769284E+01  1.59949146E+01  2.79769284E+01  1.59949146E+01
  2.79769284E+01  1.59949146E+01  2.79769284E+01  1.59949146E+01  1.59949146E+01
  2.79769284E+01  1.59949146E+01  2.79769284E+01  1.59949146E+01  2.79769284E+01
  1.59949146E+01  2.79769284E+01  1.59949146E+01  2.79769284E+01  1.59949146E+01
  2.79769284E+01  1.59949146E+01  2.79769284E+01  1.59949146E+01  1.59949146E+01
  1.59949146E+01  2.79769284E+01  1.59949146E+01  1.59949146E+01  2.79769284E+01
  1.59949146E+01  1.59949146E+01  1.59949146E+01  2.79769284E+01  1.59949146E+01
  2.79769284E+01  1.59949146E+01  1.59949146E+01  2.79769284E+01  1.59949146E+01
  2.79769284E+01  1.59949146E+01  1.59949146E+01  2.79769284E+01  1.59949146E+01
  1.59949146E+01  2.79769284E+01  1.59949146E+01  2.79769284E+01  1.59949146E+01
  2.79769284E+01  1.59949146E+01  1.59949146E+01  1.59949146E+01  1.59949146E+01
  1.59949146E+01  2.79769284E+01  1.59949146E+01  2.79769284E+01  1.59949146E+01
  2.79769284E+01  1.59949146E+01  2.79769284E+01  1.59949146E+01  2.79769284E+01
  1.59949146E+01  2.79769284E+01  1.59949146E+01  2.79769284E+01  1.59949146E+01
  1.59949146E+01  1.59949146E+01  2.79769284E+01  1.59949146E+01  2.79769284E+01
  1.59949146E+01  2.79769284E+01  1.59949146E+01  2.79769284E+01  1.59949146E+01
  2.79769284E+01  1.59949146E+01  2.79769284E+01  1.59949146E+01  2.79769284E+01
  1.59949146E+01  1.59949146E+01  2.79769284E+01  1.59949146E+01  1.59949146E+01
  1.59949146E+01  1.59949146E+01  1.59949146E+01  1.59949146E+01  1.00782504E+00
  1.00782504E+00  1.00782504E+00  1.00782504E+00  1.00782504E+00  1.00782504E+00
  1.00782504E+00  1.00782504E+00  1.00782504E+00  1.00782504E+00  1.00782504E+00
  1.00782504E+00  1.00782504E+00  1.00782504E+00  1.00782504E+00  1.00782504E+00
  1.00782504E+00  1.00782504E+00  1.00782504E+00  1.00782504E+00  1.00782504E+00
  1.00782504E+00  1.00782504E+00  1.00782504E+00  1.00782504E+00  1.00782504E+00
  1.00782504E+00  1.00782504E+00  1.00782504E+00  1.00782504E+00  1.00782504E+00
  1.00782504E+00  1.00782504E+00  1.00782504E+00  1.00782504E+00  1.00782504E+00
  1.00782504E+00  1.00782504E+00  1.00782504E+00  1.00782504E+00  1.00782504E+00
  1.00782504E+00  1.00782504E+00  1.00782504E+00  1.00782504E+00  1.00782504E+00
  1.00782504E+00  1.00782504E+00  1.20000000E+01  1.20000000E+01  1.20000000E+01
  1.20000000E+01  1.20000000E+01  1.20000000E+01  1.00782504E+00  1.00782504E+00
  1.00782504E+00  1.00782504E+00  1.00782504E+00  1.00782504E+00  1.00782504E+00
  1.00782504E+00  1.00782504E+00  1.00782504E+00  1.00782504E+00  1.00782504E+00
  1.00782504E+00
Atom residue info                          I   N=         181
           0           0           0           0           0           0
           0           0           0           0           0           0
           0           0           0           0           0           0
           0           0           0           0           0           0
           0           0           0           0           0           0
           0           0           0           0           0           0
           0           0           0           0           0           0
           0           0           0           0           0           0
           0           0           0           0           0           0
           0           0           0           0           0           0
           0           0           0           0           0           0
           0           0           0           0           0           0
           0           0           0           0           0           0
           0           0           0           0           0           0
           0           0           0           0           0           0
           0           0           0           0           0           0
           0           0           0           0           0           0
           0           0           0           0           0           0
           0           0           0           0           0           0
           0           0           0           0           0           0
           0           0           0           0           0           0
           0           0           0           0           0           0
           0           0           0           0           0           0
           0           0           0           0           0           0
           0           0           0           0           0           0
           0           0           0           0           0           0
           0           0           0           0           0           0
           0           0           0           0           0           0
           0           0           0           0           0           0
           0           0           0           0           0           0
           0