no comment                                                              
Freq      ONIOM(B3LYP/6-31+G(d):MNDO/ZDO)                             Mixed               
Number of atoms                            I              181
Charge                                     I                0
Multiplicity                               I                1
Number of electrons                        I                0
Number of alpha electrons                  I                0
Number of beta electrons                   I                0
Number of basis functions                  I                0
Number of independant functions            I                0
Number of point charges in /Mol/           I                0
Number of translation vectors              I                0
Info1-9                                    I   N=           9
         191         190           0           0           0         201
           6           8         401
Num ILSW                                   I              100
ILSW                                       I   N=         100
           0           0           0           1           0           0
           0           0           0           0           0     1000000
           5           0           0           0           0           0
           0     1000000           0           0           1           0
           1           0           0           0     1000000           0
           0           0      100000        8193          -1           0
           0           0           0           0           0           0
           0           0           0           1           0           0
           0           0           1     1000000     1000000           0
           0           0           0           0           0           0
           0           0           0           0           0           0
           0           0           0           0           0           0
           0           0           0           0           0           0
           0           0           0           0           0           0
           0           0           0           0           0           0
           0           0           0           0           0           0
           0           0           0           0
Number of contracted shells                I              181
Highest angular momentum                   I                1
Largest degree of contraction              I                3
Number of primitive shells                 I              543
Pure/Cartesian d shells                    I                0
Pure/Cartesian f shells                    I                0
Virial Ratio                               R      2.004670010044747E+00
SCF Energy                                 R     -1.046922229167959E+00
Total Energy                               R     -3.053805846445570E+03
RMS Force                                  R      1.195598923526615E-05
RMS Density                                R      9.964809098887095E-09
Atomic numbers                             I   N=         181
           8          13           8          14           8          14
           8          14           8          14           8          14
           8          14           8          14           8          14
           8          14           8          14           8          14
           8          14           8          14           8           8
          14           8          14           8          14           8
          14           8          14           8          14           8
          14           8           8           8          14           8
           8          14           8           8           8          14
           8          14           8           8          14           8
          14           8           8          14           8           8
          14           8          14           8          14           8
           8           8           8           8          14           8
          14           8          14           8          14           8
          14           8          14           8          14           8
           8           8          14           8          14           8
          14           8          14           8          14           8
          14           8          14           8           8          14
           8           8           8           8           8           8
           1           1           1           1           1           1
           1           1           1           1           1           1
           1           1           1           1           1           1
           1           1           1           1           1           1
           1           1           1           1           1           1
           1           1           1           1           1           1
           1           1           1           1           1           1
           1           1           1           1           1           1
           6           6           6           6           6           6
           1           1           1           1           1           1
           1           1           1           1           1           1
           1
Nuclear charges                            R   N=         181
  8.00000000E+00  1.30000000E+01  8.00000000E+00  1.40000000E+01  8.00000000E+00
  1.40000000E+01  8.00000000E+00  1.40000000E+01  8.00000000E+00  1.40000000E+01
  8.00000000E+00  1.40000000E+01  8.00000000E+00  1.40000000E+01  8.00000000E+00
  1.40000000E+01  8.00000000E+00  1.40000000E+01  8.00000000E+00  1.40000000E+01
  8.00000000E+00  1.40000000E+01  8.00000000E+00  1.40000000E+01  8.00000000E+00
  1.40000000E+01  8.00000000E+00  1.40000000E+01  8.00000000E+00  8.00000000E+00
  1.40000000E+01  8.00000000E+00  1.40000000E+01  8.00000000E+00  1.40000000E+01
  8.00000000E+00  1.40000000E+01  8.00000000E+00  1.40000000E+01  8.00000000E+00
  1.40000000E+01  8.00000000E+00  1.40000000E+01  8.00000000E+00  8.00000000E+00
  8.00000000E+00  1.40000000E+01  8.00000000E+00  8.00000000E+00  1.40000000E+01
  8.00000000E+00  8.00000000E+00  8.00000000E+00  1.40000000E+01  8.00000000E+00
  1.40000000E+01  8.00000000E+00  8.00000000E+00  1.40000000E+01  8.00000000E+00
  1.40000000E+01  8.00000000E+00  8.00000000E+00  1.40000000E+01  8.00000000E+00
  8.00000000E+00  1.40000000E+01  8.00000000E+00  1.40000000E+01  8.00000000E+00
  1.40000000E+01  8.00000000E+00  8.00000000E+00  8.00000000E+00  8.00000000E+00
  8.00000000E+00  1.40000000E+01  8.00000000E+00  1.40000000E+01  8.00000000E+00
  1.40000000E+01  8.00000000E+00  1.40000000E+01  8.00000000E+00  1.40000000E+01
  8.00000000E+00  1.40000000E+01  8.00000000E+00  1.40000000E+01  8.00000000E+00
  8.00000000E+00  8.00000000E+00  1.40000000E+01  8.00000000E+00  1.40000000E+01
  8.00000000E+00  1.40000000E+01  8.00000000E+00  1.40000000E+01  8.00000000E+00
  1.40000000E+01  8.00000000E+00  1.40000000E+01  8.00000000E+00  1.40000000E+01
  8.00000000E+00  8.00000000E+00  1.40000000E+01  8.00000000E+00  8.00000000E+00
  8.00000000E+00  8.00000000E+00  8.00000000E+00  8.00000000E+00  1.00000000E+00
  1.00000000E+00  1.00000000E+00  1.00000000E+00  1.00000000E+00  1.00000000E+00
  1.00000000E+00  1.00000000E+00  1.00000000E+00  1.00000000E+00  1.00000000E+00
  1.00000000E+00  1.00000000E+00  1.00000000E+00  1.00000000E+00  1.00000000E+00
  1.00000000E+00  1.00000000E+00  1.00000000E+00  1.00000000E+00  1.00000000E+00
  1.00000000E+00  1.00000000E+00  1.00000000E+00  1.00000000E+00  1.00000000E+00
  1.00000000E+00  1.00000000E+00  1.00000000E+00  1.00000000E+00  1.00000000E+00
  1.00000000E+00  1.00000000E+00  1.00000000E+00  1.00000000E+00  1.00000000E+00
  1.00000000E+00  1.00000000E+00  1.00000000E+00  1.00000000E+00  1.00000000E+00
  1.00000000E+00  1.00000000E+00  1.00000000E+00  1.00000000E+00  1.00000000E+00
  1.00000000E+00  1.00000000E+00  6.00000000E+00  6.00000000E+00  6.00000000E+00
  6.00000000E+00  6.00000000E+00  6.00000000E+00  1.00000000E+00  1.00000000E+00
  1.00000000E+00  1.00000000E+00  1.00000000E+00  1.00000000E+00  1.00000000E+00
  1.00000000E+00  1.00000000E+00  1.00000000E+00  1.00000000E+00  1.00000000E+00
  1.00000000E+00
Current cartesian coordinates              R   N=         543
  1.85814878E+00 -2.22398615E-03 -2.64312255E-01  3.21364924E+00  9.99680604E-01
  2.78170140E+00  6.44531526E+00  9.22103901E-01  2.80814244E+00  8.71363873E+00
 -5.61168363E-01  4.30752486E+00  8.49136912E+00 -3.80064592E-01  7.44285263E+00
  8.58111033E+00 -4.30187679E-01  1.04867876E+01  5.98496665E+00  8.00137149E-01
  1.15171645E+01  3.00847029E+00  1.41421280E+00  1.18337031E+01  2.59897199E+00
  4.43211862E+00  1.18596377E+01  3.55039593E+00  6.95583285E+00  1.04611572E+01
  3.82152068E+00  6.22414415E+00  7.52563020E+00  3.40983058E+00  6.51575719E+00
  4.42539275E+00  6.15978640E+00  7.58894240E+00  3.32496553E+00  9.09203847E+00
  8.28239093E+00  2.90866454E+00  9.46670496E+00  8.81195460E+00 -9.99457652E-02
  9.20927520E+00  8.12095731E+00 -3.06941795E+00  1.08819231E+01  5.62044352E+00
 -3.61568297E+00  1.28186167E+01  3.38795528E+00 -2.83403933E+00  1.14000260E+01
  7.18424061E-01 -3.18924737E+00  8.79861406E+00 -7.61313029E-01 -4.01849321E+00
  8.59773617E+00 -6.70462576E-01 -7.15325029E+00  8.88824190E+00 -9.37150146E-01
 -1.01861115E+01  6.31291356E+00  2.30418769E-01 -1.13410214E+01  3.37304765E+00
  8.39668060E-01 -1.18813054E+01  1.78707431E+00 -1.55788808E-01 -9.48408953E+00
  1.21910601E+00 -2.33060853E+00 -7.35066242E+00  2.53081963E+00 -1.42432598E+00
 -4.71709473E+00  3.39202617E+00  8.20750014E-01 -2.89741697E+00  6.41661411E+00
  7.98861629E-01 -2.63822591E+00  2.41341231E+00  3.63251689E+00 -3.50846747E+00
  3.60417383E+00  6.25001259E+00 -4.74227533E+00  1.56291221E+00  8.55527039E+00
 -4.33223122E+00  9.21731621E-01  1.13385799E+01 -3.28704826E+00  1.47999639E+00
  1.15143169E+01 -2.92529645E-01  8.08892274E-01  1.15324715E+01  2.69683002E+00
 -2.18261038E+00  1.19646496E+01  3.00110616E+00 -4.70180064E+00  1.31934098E+01
  4.10757483E+00 -7.05562822E+00  1.14980455E+01  3.23885260E+00 -9.94642916E+00
  1.09870916E+01  2.46166683E+00 -1.01282188E+01  1.02367664E+01 -4.53868793E-01
 -9.83792674E+00  1.08419059E+01 -3.39055612E+00 -6.91512139E+00  1.12985755E+01
 -4.09098689E+00 -4.53954495E+00  1.29534807E+01 -4.97809237E+00 -2.04246449E+00
  1.17606518E+01 -3.78250422E+00  6.31356101E+00  7.27956590E+00 -3.57309421E+00
  4.03917938E+00  5.80923401E+00 -7.80128085E+00  3.89165974E+00  6.41847036E+00
 -1.07740185E+01  2.97978777E+00  3.84257513E+00 -1.20928376E+01  1.34723712E+01
  3.80170899E+00  1.01835412E-01  1.27135404E+01  3.52960347E+00  3.04496292E+00
  1.07353049E+01  5.79455153E+00  3.59877929E+00  1.13960500E+01  8.32074080E-01
  3.50398496E+00  8.90611521E+00 -3.57848272E+00  3.53702871E+00  8.17118968E+00
 -6.50454041E+00  3.20506808E+00  7.52854301E+00 -7.06416398E+00  2.77990013E-01
  8.25266335E+00 -6.65674840E+00 -2.63769112E+00  8.92174326E+00 -3.72100209E+00
 -3.10691389E+00  5.64199348E+00 -6.86653850E+00  4.85611802E+00  4.01016018E+00
 -7.03459958E+00  7.40722941E+00  6.04441828E+00 -7.39557296E+00  9.66690912E+00
  7.89599073E+00 -6.33413439E+00  1.18363147E+01  8.51799946E+00 -3.39957861E+00
  1.12776607E+01  2.43148271E+00 -4.55521669E+00  8.22798282E+00  9.69480703E-01
 -1.93208422E+00  7.29713207E+00  1.86031266E+00 -1.39289801E+00  4.43030792E+00
  2.11527912E+00 -9.40427666E+00  7.25592848E+00  7.47548490E-01 -1.16476784E+01
  8.76887724E+00 -2.12498073E+00 -1.17964342E+01  7.79515050E+00 -4.61499366E+00
 -1.00994377E+01  7.40125409E+00 -3.84835097E+00 -7.14976030E+00  7.53550969E+00
 -4.26263026E+00 -4.26328493E+00  8.46306475E+00 -2.09279588E+00 -2.44894731E+00
  7.43309976E+00  1.64739515E+00  3.10905502E-01  9.35477927E+00  1.42570483E+00
  8.88943821E+00  4.02171701E+00  2.16246230E+00  4.05225339E+00  3.03672750E+00
 -1.10407353E+01  8.72241914E+00  4.14702286E+00 -1.21035172E+01  7.91735791E+00
  6.85580165E+00 -1.16690613E+01  4.94037789E+00  7.14718797E+00 -1.26571024E+01
  2.26734883E+00  8.15604095E+00 -1.04523455E+01  2.33157139E-01  7.72900252E+00
 -9.83935586E+00 -2.70371909E+00  7.24409124E+00 -1.09179737E+01 -3.48188008E+00
  4.49545056E+00 -1.16531487E+01 -5.94222611E+00  2.87248384E+00 -1.11041171E+01
 -5.51775954E+00 -8.60279323E-02 -1.16363377E+01 -6.14173583E+00 -3.00970260E+00
 -9.90768964E+00 -8.56998271E+00 -3.75328905E+00 -8.30459691E+00 -1.10333294E+01
 -2.85142481E+00 -7.82148846E+00 -1.07367576E+01  1.21488564E-01 -8.39035081E+00
 -1.08842527E+01  3.09466461E+00 -9.98993810E+00 -8.35408151E+00  3.79121766E+00
 -6.89093328E+00 -3.30395250E+00  7.30118176E+00  5.76769242E+00 -7.05906190E+00
 -4.36137268E+00  4.24442390E+00 -7.42599396E+00 -6.95409773E+00  2.34423838E+00
 -9.77629001E+00 -6.72659738E+00  1.01451771E+00 -1.20889672E+01 -8.17529545E+00
 -1.88349825E+00 -1.21750635E+01 -7.28342975E+00 -4.38564134E+00 -1.04621063E+01
 -7.06633045E+00 -3.61180824E+00 -7.52108012E+00 -7.35510706E+00 -3.98308492E+00
 -4.66753134E+00 -8.37455195E+00 -6.64793903E+00 -3.63986453E+00 -7.37907446E+00
 -9.61404377E+00 -3.08406425E+00 -7.44561927E+00 -1.01916993E+01 -1.69254345E-01
 -8.08444119E+00 -1.23794827E+01  1.83641193E+00 -8.70889552E+00 -1.14165050E+01
  4.55626273E+00 -7.80668925E+00 -1.18597879E+01  7.54587746E+00 -7.68730769E+00
 -1.08650512E+01  8.48782289E+00 -4.99837858E+00  6.36332284E+00 -7.88490428E+00
 -9.11121444E+00  8.27129796E+00 -6.91702982E+00 -1.12732652E+01  8.84922882E+00
 -3.94766341E+00 -1.07992652E+01  2.67654623E+00 -5.01514388E+00 -8.01587059E+00
 -5.81975447E+00 -1.07711636E+01  4.69268884E+00 -1.08498377E+01 -3.77081920E+00
 -4.74485292E+00 -1.83755619E+00 -2.86529930E+00 -7.18476148E+00 -5.68136792E+00
 -1.09691257E+01 -4.37070226E+00 -1.41204620E+01 -6.52675456E+00  3.23882993E+00
  9.96534874E+00  1.02845445E+01  4.31523494E+00  1.92697026E+00 -1.38081474E+01
  8.25497756E+00  7.04774474E-01 -1.10208090E+01  1.12833695E+01 -6.28494837E+00
 -1.05851428E+01  9.31362293E+00 -9.74117785E+00 -1.30321552E+01  3.59405876E+00
  1.06019989E+00 -1.15496110E+01 -1.07119070E+01  2.19201573E+00 -1.42120442E+01
 -7.53112371E+00 -5.97607259E+00 -1.10431746E+01 -9.01202838E+00 -9.62248413E+00
 -1.32096269E+01 -3.29327869E+00 -1.40946540E+01 -6.80380542E+00 -3.39603065E+00
  2.24019714E+00  1.30882586E+01 -4.68072506E+00 -4.72000081E+00  1.53548766E+01
 -4.01907903E+00 -4.48667609E+00  1.30171532E+01 -7.57127850E+00 -1.11363672E+01
  1.30153327E+01 -3.98366556E+00 -1.05854153E+01  8.75316503E+00 -9.58200380E+00
 -1.46325805E+01  1.22624747E+00 -7.54954854E+00 -1.27167365E+01  1.94410739E+00
 -1.12705497E+01 -1.06868959E+01 -4.60659592E+00 -9.25042489E+00 -3.90446475E+00
 -4.71270523E+00 -1.09751949E+01 -1.10032550E+01 -4.13451213E+00  9.07220285E+00
 -1.30932191E+01  2.50714369E+00  1.06894154E+01 -1.48669746E+01  1.59918679E+00
  6.94444871E+00 -1.46375928E+01  8.43673564E+00  6.86864801E+00 -1.09022525E+01
  9.23310820E+00  8.72585952E+00 -1.12576933E+01  1.31872618E+01  2.88873737E+00
 -4.73997313E+00  1.34179452E+01  6.69212680E+00 -4.84684492E+00  1.55256077E+01
  2.99476046E+00  2.07824759E+00  1.33539843E+01  3.99553296E+00  1.84472704E+00
  8.80603519E+00  1.09143343E+01  5.88296043E+00  7.47871087E+00  1.14008519E+01
 -1.43927617E+01  8.06617360E+00 -7.82349647E+00 -4.30490722E+00 -4.17828694E+00
  1.10306054E+01  2.08454360E+00  4.63525499E-01  1.39640783E+01  1.05628017E+01
  8.90239765E-01  1.15116768E+01  1.00424401E+01 -7.73634875E+00  1.16483267E+01
  6.68777168E+00 -6.58536037E+00  1.41107683E+01  1.02106616E+01 -7.91645853E+00
  3.90430643E+00  1.47470463E+01  3.61906332E+00  4.49208496E+00  1.48604337E+01
  3.37499953E+00 -4.27955699E+00  1.00769428E+01  1.00324097E+01 -4.60145294E+00
  6.26917516E+00  6.84431283E+00 -1.15920790E+01  2.19618970E+00  8.22022579E+00
 -1.13198243E+01  2.51924682E+00 -2.70185194E-01 -1.39207205E+01  1.09166965E+01
  3.25657663E-01 -1.12186370E+01  7.11135386E+00 -7.27155202E+00 -1.35653330E+01
  1.04056209E+01 -8.31403421E+00 -1.09491356E+01  1.03235501E+01 -8.07766350E+00
 -3.25913889E+00 -9.76155054E-01 -1.39356035E-01 -5.09443749E-01 -2.07885346E+00
 -2.61728789E+00  4.39436875E-01 -7.12038865E-01 -5.03133351E+00 -3.71287761E-01
 -7.29987254E+00  2.84781845E+00  4.96241685E-02 -5.62715704E+00  4.37028215E+00
  1.17900954E+00 -4.69000781E+00  4.10780496E+00  3.84563989E+00 -1.38412617E+00
  1.59026010E-01 -2.50490762E+00 -1.68917724E+00  1.48015242E+00  5.33496104E-01
 -4.03594266E+00 -2.62535155E+00 -2.56199660E-01 -2.17621405E+00 -2.56068304E+00
  2.49183819E+00 -6.07434944E-01 -5.23347184E+00 -2.42480213E+00 -1.70914702E+00
 -6.68563389E+00  3.71977432E-01  1.21071402E+00 -5.06433738E+00  3.81437401E-01
 -7.90424289E+00  3.15804528E+00 -1.88920839E+00 -8.14223858E+00  1.24996988E+00
  1.03453053E+00 -4.84742030E+00  5.94822434E+00  1.04760708E-01 -5.46320987E+00
  2.42474297E+00  4.76517684E+00 -5.21897445E+00  5.75959751E+00  4.98541687E+00
 -2.61950668E+00  4.00967736E+00  3.90495083E+00
Int Atom Types                             I   N=         181
           0           0           0           0           0           0
           0           0           0           0           0           0
           0           0           0           0           0           0
           0           0           0           0           0           0
           0           0           0           0           0           0
           0           0           0           0           0           0
           0           0           0           0           0           0
           0           0           0           0           0           0
           0           0           0           0           0           0
           0           0           0           0           0           0
           0           0           0           0           0           0
           0           0           0           0           0           0
           0           0           0           0           0           0
           0           0           0           0           0           0
           0           0           0           0           0           0
           0           0           0           0           0           0
           0           0           0           0           0           0
           0           0           0           0           0           0
           0           0           0           0           0           0
           0           0           0           0           0           0
           0           0           0           0           0           0
           0           0           0           0           0           0
           0           0           0           0           0           0
           0           0           0           0           0           0
           0           0           0           0           0           0
           0           0           0           0           0           0
           0           0           0           0           0           0
           0           0           0           0           0           0
           0           0           0           0           0           0
           0           0           0           0           0           0
           0
Force Field                                I                0
MM charges                                 R   N=         181
  0.00000000E+00  0.00000000E+00  0.00000000E+00  0.00000000E+00  0.00000000E+00
  0.00000000E+00  0.00000000E+00  0.00000000E+00  0.00000000E+00  0.00000000E+00
  0.00000000E+00  0.00000000E+00  0.00000000E+00  0.00000000E+00  0.00000000E+00
  0.00000000E+00  0.00000000E+00  0.00000000E+00  0.00000000E+00  0.00000000E+00
  0.00000000E+00  0.00000000E+00  0.00000000E+00  0.00000000E+00  0.00000000E+00
  0.00000000E+00  0.00000000E+00  0.00000000E+00  0.00000000E+00  0.00000000E+00
  0.00000000E+00  0.00000000E+00  0.00000000E+00  0.00000000E+00  0.00000000E+00
  0.00000000E+00  0.00000000E+00  0.00000000E+00  0.00000000E+00  0.00000000E+00
  0.00000000E+00  0.00000000E+00  0.00000000E+00  0.00000000E+00  0.00000000E+00
  0.00000000E+00  0.00000000E+00  0.00000000E+00  0.00000000E+00  0.00000000E+00
  0.00000000E+00  0.00000000E+00  0.00000000E+00  0.00000000E+00  0.00000000E+00
  0.00000000E+00  0.00000000E+00  0.00000000E+00  0.00000000E+00  0.00000000E+00
  0.00000000E+00  0.00000000E+00  0.00000000E+00  0.00000000E+00  0.00000000E+00
  0.00000000E+00  0.00000000E+00  0.00000000E+00  0.00000000E+00  0.00000000E+00
  0.00000000E+00  0.00000000E+00  0.00000000E+00  0.00000000E+00  0.00000000E+00
  0.00000000E+00  0.00000000E+00  0.00000000E+00  0.00000000E+00  0.00000000E+00
  0.00000000E+00  0.00000000E+00  0.00000000E+00  0.00000000E+00  0.00000000E+00
  0.00000000E+00  0.00000000E+00  0.00000000E+00  0.00000000E+00  0.00000000E+00
  0.00000000E+00  0.00000000E+00  0.00000000E+00  0.00000000E+00  0.00000000E+00
  0.00000000E+00  0.00000000E+00  0.00000000E+00  0.00000000E+00  0.00000000E+00
  0.00000000E+00  0.00000000E+00  0.00000000E+00  0.00000000E+00  0.00000000E+00
  0.00000000E+00  0.00000000E+00  0.00000000E+00  0.00000000E+00  0.00000000E+00
  0.00000000E+00  0.00000000E+00  0.00000000E+00  0.00000000E+00  0.00000000E+00
  0.00000000E+00  0.00000000E+00  0.00000000E+00  0.00000000E+00  0.00000000E+00
  0.00000000E+00  0.00000000E+00  0.00000000E+00  0.00000000E+00  0.00000000E+00
  0.00000000E+00  0.00000000E+00  0.00000000E+00  0.00000000E+00  0.00000000E+00
  0.00000000E+00  0.00000000E+00  0.00000000E+00  0.00000000E+00  0.00000000E+00
  0.00000000E+00  0.00000000E+00  0.00000000E+00  0.00000000E+00  0.00000000E+00
  0.00000000E+00  0.00000000E+00  0.00000000E+00  0.00000000E+00  0.00000000E+00
  0.00000000E+00  0.00000000E+00  0.00000000E+00  0.00000000E+00  0.00000000E+00
  0.00000000E+00  0.00000000E+00  0.00000000E+00  0.00000000E+00  0.00000000E+00
  0.00000000E+00  0.00000000E+00  0.00000000E+00  0.00000000E+00  0.00000000E+00
  0.00000000E+00  0.00000000E+00  0.00000000E+00  0.00000000E+00  0.00000000E+00
  0.00000000E+00  0.00000000E+00  0.00000000E+00  0.00000000E+00  0.00000000E+00
  0.00000000E+00  0.00000000E+00  0.00000000E+00  0.00000000E+00  0.00000000E+00
  0.00000000E+00  0.00000000E+00  0.00000000E+00  0.00000000E+00  0.00000000E+00
  0.00000000E+00
Integer atomic weights                     I   N=         181
          16          27          16          28          16          28
          16          28          16          28          16          28
          16          28          16          28          16          28
          16          28          16          28          16          28
          16          28          16          28          16          16
          28          16          28          16          28          16
          28          16          28          16          28          16
          28          16          16          16          28          16
          16          28          16          16          16          28
          16          28          16          16          28          16
          28          16          16          28          16          16
          28          16          28          16          28          16
          16          16          16          16          28          16
          28          16          28          16          28          16
          28          16          28          16          28          16
          16          16          28          16          28          16
          28          16          28          16          28          16
          28          16          28          16          16          28
          16          16          16          16          16          16
           1           1           1           1           1           1
           1           1           1           1           1           1
           1           1           1           1           1           1
           1           1           1           1           1           1
           1           1           1           1           1           1
           1           1           1           1           1           1
           1           1           1           1           1           1
           1           1           1           1           1           1
          12          12          12          12          12          12
           1           1           1           1           1           1
           1           1           1           1           1           1
           1
Real atomic weights                        R   N=         181
  1.59949146E+01  2.69815413E+01  1.59949146E+01  2.79769284E+01  1.59949146E+01
  2.79769284E+01  1.59949146E+01  2.79769284E+01  1.59949146E+01  2.79769284E+01
  1.59949146E+01  2.79769284E+01  1.59949146E+01  2.79769284E+01  1.59949146E+01
  2.79769284E+01  1.59949146E+01  2.79769284E+01  1.59949146E+01  2.79769284E+01
  1.59949146E+01  2.79769284E+01  1.59949146E+01  2.79769284E+01  1.59949146E+01
  2.79769284E+01  1.59949146E+01  2.79769284E+01  1.59949146E+01  1.59949146E+01
  2.79769284E+01  1.59949146E+01  2.79769284E+01  1.59949146E+01  2.79769284E+01
  1.59949146E+01  2.79769284E+01  1.59949146E+01  2.79769284E+01  1.59949146E+01
  2.79769284E+01  1.59949146E+01  2.79769284E+01  1.59949146E+01  1.59949146E+01
  1.59949146E+01  2.79769284E+01  1.59949146E+01  1.59949146E+01  2.79769284E+01
  1.59949146E+01  1.59949146E+01  1.59949146E+01  2.79769284E+01  1.59949146E+01
  2.79769284E+01  1.59949146E+01  1.59949146E+01  2.79769284E+01  1.59949146E+01
  2.79769284E+01  1.59949146E+01  1.59949146E+01  2.79769284E+01  1.59949146E+01
  1.59949146E+01  2.79769284E+01  1.59949146E+01  2.79769284E+01  1.59949146E+01
  2.79769284E+01  1.59949146E+01  1.59949146E+01  1.59949146E+01  1.59949146E+01
  1.59949146E+01  2.79769284E+01  1.59949146E+01  2.79769284E+01  1.59949146E+01
  2.79769284E+01  1.59949146E+01  2.79769284E+01  1.59949146E+01  2.79769284E+01
  1.59949146E+01  2.79769284E+01  1.59949146E+01  2.79769284E+01  1.59949146E+01
  1.59949146E+01  1.59949146E+01  2.79769284E+01  1.59949146E+01  2.79769284E+01
  1.59949146E+01  2.79769284E+01  1.59949146E+01  2.79769284E+01  1.59949146E+01
  2.79769284E+01  1.59949146E+01  2.79769284E+01  1.59949146E+01  2.79769284E+01
  1.59949146E+01  1.59949146E+01  2.79769284E+01  1.59949146E+01  1.59949146E+01
  1.59949146E+01  1.59949146E+01  1.59949146E+01  1.59949146E+01  1.00782504E+00
  1.00782504E+00  1.00782504E+00  1.00782504E+00  1.00782504E+00  1.00782504E+00
  1.00782504E+00  1.00782504E+00  1.00782504E+00  1.00782504E+00  1.00782504E+00
  1.00782504E+00  1.00782504E+00  1.00782504E+00  1.00782504E+00  1.00782504E+00
  1.00782504E+00  1.00782504E+00  1.00782504E+00  1.00782504E+00  1.00782504E+00
  1.00782504E+00  1.00782504E+00  1.00782504E+00  1.00782504E+00  1.00782504E+00
  1.00782504E+00  1.00782504E+00  1.00782504E+00  1.00782504E+00  1.00782504E+00
  1.00782504E+00  1.00782504E+00  1.00782504E+00  1.00782504E+00  1.00782504E+00
  1.00782504E+00  1.00782504E+00  1.00782504E+00  1.00782504E+00  1.00782504E+00
  1.00782504E+00  1.00782504E+00  1.00782504E+00  1.00782504E+00  1.00782504E+00
  1.00782504E+00  1.00782504E+00  1.20000000E+01  1.20000000E+01  1.20000000E+01
  1.20000000E+01  1.20000000E+01  1.20000000E+01  1.00782504E+00  1.00782504E+00
  1.00782504E+00  1.00782504E+00  1.00782504E+00  1.00782504E+00  1.00782504E+00
  1.00782504E+00  1.00782504E+00  1.00782504E+00  1.00782504E+00  1.00782504E+00
  1.00782504E+00
Atom residue info                          I   N=         181
           0           0           0           0           0           0
           0           0           0           0           0           0
           0           0           0           0           0           0
           0           0           0           0           0           0
           0           0           0           0           0           0
           0           0           0           0           0           0
           0           0           0           0           0           0
           0           0           0           0           0           0
           0           0           0           0           0           0
           0           0           0           0           0           0
           0           0           0           0           0           0
           0           0           0           0           0           0
           0           0           0           0           0           0
           0           0           0           0           0           0
           0           0           0           0           0           0
           0           0           0           0           0           0
           0           0           0           0           0           0
           0           0           0           0           0           0
           0           0           0           0           0           0
           0           0           0           0           0           0
           0           0           0           0           0           0
           0           0           0           0           0           0
           0           0           0           0           0           0
           0           0           0           0           0           0
           0           0           0           0           0           0
           0           0           0           0           0           0
           0           0           0           0           0           0
           0           0           0           0           0           0
           0           0           0           0           0           0
           0           0           0           0           0           0
           0