titel: geometrie uit molden                                             
Freq      RB3LYP                                                      6-311G(d,p)         
Number of atoms                            I               14
Charge                                     I                0
Multiplicity                               I                1
Number of electrons                        I               34
Number of alpha electrons                  I               17
Number of beta electrons                   I               17
Number of basis functions                  I              132
Number of independant functions            I              132
Number of point charges in /Mol/           I                0
Number of translation vectors              I                0
Info1-9                                    I   N=           9
          26           7           0           0           0         101
           6          18        -502
Num ILSW                                   I              100
ILSW                                       I   N=         100
           0           0           0           0           2           0
           0           0           0           0         402      200000
           5           0           0           0           0           0
           0      800000           0           0           1           0
           1           0           0           0     1000000           0
           0           0      100000           0          -1           0
           0           0           0           0           0           0
           0           0           0           1           0           0
           0           0           1      720000      810000           0
           0           0           0           0           0           0
           0           0           0           0           0           0
           0           0           0           0           0           0
           0           0           0           0           0           0
           0           0           0           0           0           0
           0           0           0           0           0           0
           0           0           0           0           0           0
           0           0           0           0
Number of contracted shells                I               60
Highest angular momentum                   I                2
Largest degree of contraction              I                6
Number of primitive shells                 I              108
Pure/Cartesian d shells                    I                0
Pure/Cartesian f shells                    I                0
Virial Ratio                               R      2.005424709514710E+00
SCF Energy                                 R     -1.584959684182053E+02
Total Energy                               R     -1.584959684182053E+02
RMS Force                                  R      3.953911465148069E-06
RMS Density                                R      1.754990050143983E-09
Atomic numbers                             I   N=          14
           6           1           1           1           6           1
           1           6           6           1           1           1
           1           1
Nuclear charges                            R   N=          14
  6.00000000E+00  1.00000000E+00  1.00000000E+00  1.00000000E+00  6.00000000E+00
  1.00000000E+00  1.00000000E+00  6.00000000E+00  6.00000000E+00  1.00000000E+00
  1.00000000E+00  1.00000000E+00  1.00000000E+00  1.00000000E+00
Current cartesian coordinates              R   N=          42
 -9.90602999E-01 -2.87891046E+00  2.77555756E-16  1.61195486E-01 -3.27913694E+00
  1.66758600E+00  1.61195486E-01 -3.27913694E+00 -1.66758600E+00 -2.56275321E+00
 -4.22031225E+00  7.77156117E-16 -2.00047294E+00 -1.60761066E-01  4.44089210E-16
 -3.23306410E+00  6.80377783E-02 -1.64542362E+00 -3.23306410E+00  6.80377783E-02
  1.64542362E+00  4.16333634E-17  2.00690639E+00 -1.11022302E-16  2.79033140E+00
  1.21802868E+00  0.00000000E+00 -3.26796638E-01  3.21720891E+00 -1.64542348E+00
 -3.26796638E-01  3.21720891E+00  1.64542348E+00  4.00151007E+00  2.89256363E+00
 -1.33226763E-15  3.28152043E+00  1.01973912E-01  1.66758778E+00  3.28152043E+00
  1.01973912E-01 -1.66758778E+00
Int Atom Types                             I   N=          14
           0           0           0           0           0           0
           0           0           0           0           0           0
           0           0
Force Field                                I                0
MM charges                                 R   N=          14
  0.00000000E+00  0.00000000E+00  0.00000000E+00  0.00000000E+00  0.00000000E+00
  0.00000000E+00  0.00000000E+00  0.00000000E+00  0.00000000E+00  0.00000000E+00
  0.00000000E+00  0.00000000E+00  0.00000000E+00  0.00000000E+00
Integer atomic weights                     I   N=          14
          12           1           1           1          12           1
           1          12          12           1           1           1
           1           1
Real atomic weights                        R   N=          14
  1.20000000E+01  1.00782504E+00  1.00782504E+00  1.00782504E+00  1.20000000E+01
  1.00782504E+00  1.00782504E+00  1.20000000E+01  1.20000000E+01  1.00782504E+00
  1.00782504E+00  1.00782504E+00  1.00782504E+00  1.00782504E+00
Atom residue info                          I   N=          14
           0           0           0           0           0           0
           0           0           0           0           0           0
           0           0
Atom fragment info                         I   N=          14
           0           0           0           0           0           0
           0           0           0           0           0           0
           0           0
Atom residue num                           I   N=          14
           0           0           0           0           0           0
           0           0           0           0           0           0
           0           0
Nuclear spins                              I   N=          14
           0           1           1           1           0           1
           1           0           0           1           1           1
           1           1
Nuclear ZEff                               R   N=          14
 -3.60000000E+00 -1.00000000E+00 -1.00000000E+00 -1.00000000E+00 -3.60000000E+00
 -1.00000000E+00 -1.00000000E+00 -3.60000000E+00 -3.60000000E+00 -1.00000000E+00
 -1.00000000E+00 -1.00000000E+00 -1.00000000E+00 -1.00000000E+00
Nuclear QMom                               R   N=          14
  0.00000000E+00  0.00000000E+00  0.00000000E+00  0.00000000E+00  0.00000000E+00
  0.00000000E+00  0.00000000E+00  0.00000000E+00  0.00000000E+00  0.00000000E+00
  0.00000000E+00  0.00000000E+00  0.00000000E+00  0.00000000E+00
Nuclear GFac                               R   N=          14
  0.00000000E+00  2.79284600E+00  2.79284600E+00  2.79284600E+00  0.00000000E+00
  2.79284600E+00  2.79284600E+00  0.00000000E+00  0.00000000E+00  2.79284600E+00
  2.79284600E+00  2.79284600E+00  2.79284600E+00  2.79284600E+00
MicOpt                                     I   N=          14
          -1          -1          -1          -1          -1          -1
          -1          -1          -1          -1          -1          -1
          -1          -1
Constraint Structure                       R   N=          42
 -9.90602999E-01 -2.87891046E+00  2.77555756E-16  1.61195486E-01 -3.27913694E+00
  1.66758600E+00  1.61195486E-01 -3.27913694E+00 -1.66758600E+00 -2.56275321E+00
 -4.22031225E+00  7.77156117E-16 -2.00047294E+00 -1.60761066E-01  4.44089210E-16
 -3.23306410E+00  6.80377783E-02 -1.64542362E+00 -3.23306410E+00  6.80377783E-02
  1.64542362E+00  4.16333634E-17  2.00690639E+00 -1.11022302E-16  2.79033140E+00
  1.21802868E+00  0.00000000E+00 -3.26796638E-01  3.21720891E+00 -1.64542348E+00
 -3.26796638E-01  3.21720891E+00  1.64542348E+00  4.00151007E+00  2.89256363E+00
 -1.33226763E-15  3.28152043E+00  1.01973912E-01  1.66758778E+00  3.28152043E+00
  1.01973912E-01 -1.66758778E+00
ONIOM Charges                              I   N=          16
           0           0           0           0           0           0
           0           0           0           0           0           0
           0           0           0           0
ONIOM Multiplicities                       I   N=          16
           1           0           0           0           0           0
           0           0           0           0           0           0
           0           0           0           0
Atom Layers                                I   N=          14
           0           0           0           0           0           0
           0           0           0           0           0           0
           0           0
Atom Modifiers                             I   N=          14
           0           0           0           0           0           0
           0           0           0           0           0           0
           0           0
Int Atom Modified Types                    I   N=          14
           0           0           0           0           0           0
           0           0           0           0           0           0
           0           0
Link Atoms                                 I   N=          14
           0           0           0           0           0           0
           0           0           0           0           0           0
           0           0
Atom Modified MM Charges                   R   N=          14
  0.00000000E+00  0.00000000E+00  0.00000000E+00  0.00000000E+00  0.00000000E+00
  0.00000000E+00  0.00000000E+00  0.00000000E+00  0.00000000E+00  0.00000000E+00
  0.00000000E+00  0.00000000E+00  0.00000000E+00  0.00000000E+00
Link Distances                             R   N=          56
  0.00000000E+00  0.00000000E+00  0.00000000E+00  0.00000000E+00  0.00000000E+00
  0.00000000E+00  0.00000000E+00  0.00000000E+00  0.00000000E+00  0.00000000E+00
  0.00000000E+00  0.00000000E+00  0.00000000E+00  0.00000000E+00  0.00000000E+00
  0.00000000E+00  0.00000000E+00  0.00000000E+00  0.00000000E+00  0.00000000E+00
  0.00000000E+00  0.00000000E+00  0.00000000E+00  0.00000000E+00  0.00000000E+00
  0.00000000E+00  0.00000000E+00  0.00000000E+00  0.00000000E+00  0.00000000E+00
  0.00000000E+00  0.00000000E+00  0.00000000E+00  0.00000000E+00  0.00000000E+00
  0.00000000E+00  0.00000000E+00  0.00000000E+00  0.00000000E+00  0.00000000E+00
  0.00000000E+00  0.00000000E+00  0.00000000E+00  0.00000000E+00  0.00000000E+00
  0.00000000E+00  0.00000000E+00  0.00000000E+00  0.00000000E+00  0.00000000E+00
  0.00000000E+00  0.00000000E+00  0.00000000E+00  0.00000000E+00  0.00000000E+00
  0.00000000E+00
MxBond                                     I                4
NBond                                      I   N=          14
           4           1           1           1           4           1
           1           4           4           1           1           1
           1           1
IBond                                      I   N=          56
           2           3           4           5           1           0
           0           0           1           0           0           0
           1           0           0           0           1           6
           7           8           5           0           0           0
           5           0           0           0           5           9
          10          11           8          12          13          14
           8           0           0           0           8           0
           0           0           9           0           0           0
           9           0           0           0           9           0
           0           0
RBond                                      R   N=          56
  1.00000000E+00  1.00000000E+00  1.00000000E+00  1.00000000E+00  1.00000000E+00
  0.00000000E+00  0.00000000E+00  0.00000000E+00  1.00000000E+00  0.00000000E+00
  0.00000000E+00  0.00000000E+00  1.00000000E+00  0.00000000E+00  0.00000000E+00
  0.00000000E+00  1.00000000E+00  1.00000000E+00  1.00000000E+00  1.00000000E+00
  1.00000000E+00  0.00000000E+00  0.00000000E+00  0.00000000E+00  1.00000000E+00
  0.00000000E+00  0.00000000E+00  0.00000000E+00  1.00000000E+00  1.00000000E+00
  1.00000000E+00  1.00000000E+00  1.00000000E+00  1.00000000E+00  1.00000000E+00
  1.00000000E+00  1.00000000E+00  0.00000000E+00  0.00000000E+00  0.00000000E+00
  1.00000000E+00  0.00000000E+00  0.00000000E+00  0.00000000E+00  1.00000000E+00
  0.00000000E+00  0.00000000E+00  0.00000000E+00  1.00000000E+00  0.00000000E+00
  0.00000000E+00  0.00000000E+00  1.00000000E+00  0.00000000E+00  0.00000000E+00
  0.00000000E+00
Shell types                                I   N=          60
           0          -1          -1          -1          -2           0
           0           0           1           0           0           0
           1           0           0           0           1           0
          -1          -1          -1          -2           0           0
           0           1           0           0           0           1
           0          -1          -1          -1          -2           0
          -1          -1          -1          -2           0           0
           0           1           0           0           0           1
           0           0           0           1           0           0
           0           1           0           0           0           1
Number of primitives per shell             I   N=          60
           6           3           1           1           1           3
           1           1           1           3           1           1
           1           3           1           1           1           6
           3           1           1           1           3           1
           1           1           3           1           1           1
           6           3           1           1           1           6
           3           1           1           1           3           1
           1           1           3           1           1           1
           3           1           1           1           3           1
           1           1           3           1           1           1
Shell to atom map                          I   N=          60
           1           1           1           1           1           2
           2           2           2           3           3           3
           3           4           4           4           4           5
           5           5           5           5           6           6
           6           6           7           7           7           7
           8           8           8           8           8           9
           9           9           9           9          10          10
          10          10          11          11          11          11
          12          12          12          12          13          13
          13          13          14          14          14          14
Primitive exponents                        R   N=         108
  4.56324000E+03  6.82024000E+02  1.54973000E+02  4.44553000E+01  1.30290000E+01
  1.82773000E+00  2.09642000E+01  4.80331000E+00  1.45933000E+00  4.83456000E-01
  1.45585000E-01  6.26000000E-01  3.38650000E+01  5.09479000E+00  1.15879000E+00
  3.25840000E-01  1.02741000E-01  7.50000000E-01  3.38650000E+01  5.09479000E+00
  1.15879000E+00  3.25840000E-01  1.02741000E-01  7.50000000E-01  3.38650000E+01
  5.09479000E+00  1.15879000E+00  3.25840000E-01  1.02741000E-01  7.50000000E-01
  4.56324000E+03  6.82024000E+02  1.54973000E+02  4.44553000E+01  1.30290000E+01
  1.82773000E+00  2.09642000E+01  4.80331000E+00  1.45933000E+00  4.83456000E-01
  1.45585000E-01  6.26000000E-01  3.38650000E+01  5.09479000E+00  1.15879000E+00
  3.25840000E-01  1.02741000E-01  7.50000000E-01  3.38650000E+01  5.09479000E+00
  1.15879000E+00  3.25840000E-01  1.02741000E-01  7.50000000E-01  4.56324000E+03
  6.82024000E+02  1.54973000E+02  4.44553000E+01  1.30290000E+01  1.82773000E+00
  2.09642000E+01  4.80331000E+00  1.45933000E+00  4.83456000E-01  1.45585000E-01
  6.26000000E-01  4.56324000E+03  6.82024000E+02  1.54973000E+02  4.44553000E+01
  1.30290000E+01  1.82773000E+00  2.09642000E+01  4.80331000E+00  1.45933000E+00
  4.83456000E-01  1.45585000E-01  6.26000000E-01  3.38650000E+01  5.09479000E+00
  1.15879000E+00  3.25840000E-01  1.02741000E-01  7.50000000E-01  3.38650000E+01
  5.09479000E+00  1.15879000E+00  3.25840000E-01  1.02741000E-01  7.50000000E-01
  3.38650000E+01  5.09479000E+00  1.15879000E+00  3.25840000E-01  1.02741000E-01
  7.50000000E-01  3.38650000E+01  5.09479000E+00  1.15879000E+00  3.25840000E-01
  1.02741000E-01  7.50000000E-01  3.38650000E+01  5.09479000E+00  1.15879000E+00
  3.25840000E-01  1.02741000E-01  7.50000000E-01
Contraction coefficients                   R   N=         108
  1.96665025E-03  1.52306019E-02  7.61269097E-02  2.60801033E-01  6.16462078E-01
  2.21006028E-01  1.14660081E-01  9.19999648E-01 -3.03068213E-03  1.00000000E+00
  1.00000000E+00  1.00000000E+00  2.54938145E-02  1.90373109E-01  8.52161486E-01
  1.00000000E+00  1.00000000E+00  1.00000000E+00  2.54938145E-02  1.90373109E-01
  8.52161486E-01  1.00000000E+00  1.00000000E+00  1.00000000E+00  2.54938145E-02
  1.90373109E-01  8.52161486E-01  1.00000000E+00  1.00000000E+00  1.00000000E+00
  1.96665025E-03  1.52306019E-02  7.61269097E-02  2.60801033E-01  6.16462078E-01
  2.21006028E-01  1.14660081E-01  9.19999648E-01 -3.03068213E-03  1.00000000E+00
  1.00000000E+00  1.00000000E+00  2.54938145E-02  1.90373109E-01  8.52161486E-01
  1.00000000E+00  1.00000000E+00  1.00000000E+00  2.54938145E-02  1.90373109E-01
  8.52161486E-01  1.00000000E+00  1.00000000E+00  1.00000000E+00  1.96665025E-03
  1.52306019E-02  7.61269097E-02  2.60801033E-01  6.16462078E-01  2.21006028E-01
  1.14660081E-01  9.19999648E-01 -3.03068213E-03  1.00000000E+00  1.00000000E+00
  1.00000000E+00  1.96665025E-03  1.52306019E-02  7.61269097E-02  2.60801033E-01
  6.16462078E-01  2.21006028E-01  1.14660081E-01  9.19999648E-01 -3.03068213E-03
  1.00000000E+00  1.00000000E+00  1.00000000E+00  2.54938145E-02  1.90373109E-01
  8.52161486E-01  1.00000000E+00  1.00000000E+00  1.00000000E+00  2.54938145E-02
  1.90373109E-01  8.52161486E-01  1.00000000E+00  1.00000000E+00  1.00000000E+00
  2.54938145E-02  1.90373109E-01  8.52161486E-01  1.00000000E+00  1.00000000E+00
  1.00000000E+00  2.54938145E-02  1.90373109E-01  8.52161486E-01  1.00000000E+00
  1.00000000E+00  1.00000000E+00  2.54938145E-02  1.90373109E-01  8.52161486E-01
  1.00000000E+00  1.00000000E+00  1.00000000E+00
P(S=P) Contraction coefficients            R   N=         108
  0.00000000E+00  0.00000000E+00  0.00000000E+00  0.00000000E+00  0.00000000E+00
  0.00000000E+00  4.02486927E-02  2.37593957E-01  8.15853851E-01  1.00000000E+00
  1.00000000E+00  0.00000000E+00  0.00000000E+00  0.00000000E+00  0.00000000E+00
  0.00000000E+00  0.00000000E+00  0.00000000E+00  0.00000000E+00  0.00000000E+00
  0.00000000E+00  0.00000000E+00  0.00000000E+00  0.00000000E+00  0.00000000E+00
  0.00000000E+00  0.00000000E+00  0.00000000E+00  0.00000000E+00  0.00000000E+00
  0.00000000E+00  0.00000000E+00  0.00000000E+00  0.00000000E+00  0.00000000E+00
  0.00000000E+00  4.02486927E-02  2.37593957E-01  8.15853851E-01  1.00000000E+00
  1.00000000E+00  0.00000000E+00  0.00000000E+00  0.00000000E+00  0.00000000E+00
  0.00000000E+00  0.00000000E+00  0.00000000E+00  0.00000000E+00  0.00000000E+00
  0.00000000E+00  0.00000000E+00  0.00000000E+00  0.00000000E+00  0.00000000E+00
  0.00000000E+00  0.00000000E+00  0.00000000E+00  0.00000000E+00  0.00000000E+00
  4.02486927E-02  2.37593957E-01  8.15853851E-01  1.00000000E+00  1.00000000E+00
  0.00000000E+00  0.00000000E+00  0.00000000E+00  0.00000000E+00  0.00000000E+00
  0.00000000E+00  0.00000000E+00  4.02486927E-02  2.37593957E-01  8.15853851E-01
  1.00000000E+00  1.00000000E+00  0.00000000E+00  0.00000000E+00  0.00000000E+00
  0.00000000E+00  0.00000000E+00  0.00000000E+00  0.00000000E+00  0.00000000E+00
  0.00000000E+00  0.00000000E+00  0.00000000E+00  0.00000000E+00  0.00000000E+00
  0.00000000E+00  0.00000000E+00  0.00000000E+00  0.00000000E+00  0.00000000E+00
  0.00000000E+00  0.00000000E+00  0.00000000E+00  0.00000000E+00  0.00000000E+00
  0.00000000E+00  0.00000000E+00  0.00000000E+00  0.00000000E+00  0.00000000E+00
  0.00000000E+00  0.00000000E+00  0.00000000E+00
Coordinates of each shell                  R   N=         180
 -9.90602999E-01 -2.87891046E+00  2.77555756E-16 -9.90602999E-01 -2.87891046E+00
  2.77555756E-16 -9.90602999E-01 -2.87891046E+00  2.77555756E-16 -9.90602999E-01
 -2.87891046E+00  2.77555756E-16 -9.90602999E-01 -2.87891046E+00  2.77555756E-16
  1.61195486E-01 -3.27913694E+00  1.66758600E+00  1.61195486E-01 -3.27913694E+00
  1.66758600E+00  1.61195486E-01 -3.27913694E+00  1.66758600E+00  1.61195486E-01
 -3.27913694E+00  1.66758600E+00  1.61195486E-01 -3.27913694E+00 -1.66758600E+00
  1.61195486E-01 -3.27913694E+00 -1.66758600E+00  1.61195486E-01 -3.27913694E+00
 -1.66758600E+00  1.61195486E-01 -3.27913694E+00 -1.66758600E+00 -2.56275321E+00
 -4.22031225E+00  7.77156117E-16 -2.56275321E+00 -4.22031225E+00  7.77156117E-16
 -2.56275321E+00 -4.22031225E+00  7.77156117E-16 -2.56275321E+00 -4.22031225E+00
  7.77156117E-16 -2.00047294E+00 -1.60761066E-01  4.44089210E-16 -2.00047294E+00
 -1.60761066E-01  4.44089210E-16 -2.00047294E+00 -1.60761066E-01  4.44089210E-16
 -2.00047294E+00 -1.60761066E-01  4.44089210E-16 -2.00047294E+00 -1.60761066E-01
  4.44089210E-16 -3.23306410E+00  6.80377783E-02 -1.64542362E+00 -3.23306410E+00
  6.80377783E-02 -1.64542362E+00 -3.23306410E+00  6.80377783E-02 -1.64542362E+00
 -3.23306410E+00  6.80377783E-02 -1.64542362E+00 -3.23306410E+00  6.80377783E-02
  1.64542362E+00 -3.23306410E+00  6.80377783E-02  1.64542362E+00 -3.23306410E+00
  6.80377783E-02  1.64542362E+00 -3.23306410E+00  6.80377783E-02  1.64542362E+00
  4.16333634E-17  2.00690639E+00 -1.11022302E-16  4.16333634E-17  2.00690639E+00
 -1.11022302E-16  4.16333634E-17  2.00690639E+00 -1.11022302E-16  4.16333634E-17
  2.00690639E+00 -1.11022302E-16  4.16333634E-17  2.00690639E+00 -1.11022302E-16
  2.79033140E+00  1.21802868E+00  0.00000000E+00  2.79033140E+00  1.21802868E+00
  0.00000000E+00  2.79033140E+00  1.21802868E+00  0.00000000E+00  2.79033140E+00
  1.21802868E+00  0.00000000E+00  2.79033140E+00  1.21802868E+00  0.00000000E+00
 -3.26796638E-01  3.21720891E+00 -1.64542348E+00 -3.26796638E-01  3.21720891E+00
 -1.64542348E+00 -3.26796638E-01  3.21720891E+00 -1.64542348E+00 -3.26796638E-01
  3.21720891E+00 -1.64542348E+00 -3.26796638E-01  3.21720891E+00  1.64542348E+00
 -3.26796638E-01  3.21720891E+00  1.64542348E+00 -3.26796638E-01  3.21720891E+00
  1.64542348E+00 -3.26796638E-01  3.21720891E+00  1.64542348E+00  4.00151007E+00
  2.89256363E+00 -1.33226763E-15  4.00151007E+00  2.89256363E+00 -1.33226763E-15
  4.00151007E+00  2.89256363E+00 -1.33226763E-15  4.00151007E+00  2.89256363E+00
 -1.33226763E-15  3.28152043E+00  1.01973912E-01  1.66758778E+00  3.28152043E+00
  1.01973912E-01  1.66758778E+00  3.28152043E+00  1.01973912E-01  1.66758778E+00
  3.28152043E+00  1.01973912E-01  1.66758778E+00  3.28152043E+00  1.01973912E-01
 -1.66758778E+00  3.28152043E+00  1.01973912E-01 -1.66758778E+00  3.28152043E+00
  1.01973912E-01 -1.66758778E+00  3.28152043E+00  1.01973912E-01 -1.66758778E+00
Alpha Orbital Energies                     R   N=         132
 -1.01627950E+01 -1.01626175E+01 -1.01552041E+01 -1.01551941E+01 -7.89134658E-01
 -7.19865279E-01 -6.45100065E-01 -5.61256787E-01 -4.65668548E-01 -4.49161444E-01
 -4.09526129E-01 -3.92288760E-01 -3.78045246E-01 -3.66384253E-01 -3.30511492E-01
 -3.24948302E-01 -3.10062762E-01  3.76931888E-02  7.15328211E-02  7.66963376E-02
  8.22596608E-02  1.09011289E-01  1.11775069E-01  1.24628006E-01  1.44220436E-01
  1.48750406E-01  1.84349390E-01  1.96680015E-01  2.29456845E-01  2.87409232E-01
  2.93401356E-01  2.96057265E-01  3.13270113E-01  3.33635366E-01  3.52314536E-01
  3.63719614E-01  3.94566798E-01  4.85500347E-01  5.06045854E-01  5.25598060E-01
  5.42998643E-01  5.70414430E-01  5.83082263E-01  5.84138931E-01  5.87053714E-01
  6.09038733E-01  6.11034359E-01  6.20156388E-01  6.20485087E-01  6.40875295E-01
  6.43195395E-01  6.84808754E-01  7.25377654E-01  8.63793839E-01  9.30011199E-01
  9.38870614E-01  9.93650710E-01  1.05936516E+00  1.22563177E+00  1.23817228E+00
  1.25008634E+00  1.28113104E+00  1.28397392E+00  1.43750843E+00  1.45324479E+00
  1.45703042E+00  1.46944052E+00  1.48086281E+00  1.48336804E+00  1.48496747E+00
  1.53421944E+00  1.58490665E+00  1.60110720E+00  1.60499949E+00  1.61196038E+00
  1.65031992E+00  1.65389516E+00  1.73064752E+00  1.73400491E+00  1.73978021E+00
  1.75059529E+00  1.78607539E+00  1.81635929E+00  1.88853035E+00  1.93382363E+00
  1.96915242E+00  2.05249623E+00  2.06529525E+00  2.11126181E+00  2.14580729E+00
  2.14950686E+00  2.20124398E+00  2.23694596E+00  2.26487138E+00  2.29848078E+00
  2.36174653E+00  2.36256165E+00  2.38690542E+00  2.40371393E+00  2.44288671E+00
  2.45269242E+00  2.47394559E+00  2.49861089E+00  2.53261266E+00  2.55611357E+00
  2.59218139E+00  2.62391338E+00  2.63210479E+00  2.65910269E+00  2.68912189E+00
  2.69787216E+00  2.73286886E+00  2.73572044E+00  2.73744990E+00  2.86325929E+00
  2.93809316E+00  2.97570176E+00  3.23126426E+00  3.29459860E+00  3.63543092E+00
  3.76999442E+00  3.77408922E+00  3.83326940E+00  3.83416110E+00  4.00851541E+00
  4.07194795E+00  4.12380707E+00  4.40918047E+00  2.38434946E+01  2.38628683E+01
  2.39167363E+01  2.39579185E+01
Alpha MO coefficients                      R   N=       17424
  5.46887050E-03  4.49689959E-03 -1.76279020E-04  3.99770430E-04  0.00000000E+00
  2.42568580E-04  5.19439422E-04 -1.21837318E-03  0.00000000E+00  2.81869183E-03
 -2.63724849E-04  1.11279119E-03  0.00000000E+00  3.41522521E-04  0.00000000E+00
  0.00000000E+00  4.57540320E-04  4.90985465E-04 -2.37333211E-05 -8.04302342E-04
  1.52382621E-04  1.33279226E-04 -3.82726105E-05  2.63826110E-04 -2.37333211E-05
 -8.04302342E-04  1.52382621E-04  1.33279226E-04 -3.82726105E-05 -2.63826110E-04
 -6.02354437E-05 -6.63184969E-04  3.11056141E-05 -2.66774317E-04 -1.70460023E-04
  0.00000000E+00  3.98332706E-01  3.27816410E-01  3.96109069E-04  1.99230750E-04
  0.00000000E+00  1.29096650E-02 -1.92651549E-03 -3.04858469E-04  0.00000000E+00
 -5.76708229E-03 -3.63195954E-04  9.32572987E-04  0.00000000E+00  7.90434266E-04
  0.00000000E+00  0.00000000E+00  4.28120226E-04 -5.89732996E-04 -1.11993077E-04
 -2.01817132E-03  1.18250494E-03 -8.84579502E-04  2.34596277E-04 -1.44447070E-03
 -1.11993077E-04 -2.01817132E-03  1.18250494E-03 -8.84579502E-04  2.34596277E-04
  1.44447070E-03  3.97780256E-01  3.27361780E-01 -1.67191905E-04 -4.10861191E-04
  0.00000000E+00  1.28910379E-02  1.50258297E-04  1.94365723E-03  0.00000000E+00
 -5.74496825E-03 -9.57589804E-04  2.81850290E-04  0.00000000E+00  7.90049134E-04
  0.00000000E+00  0.00000000E+00 -3.28146955E-04 -6.50732943E-04  5.46170369E-03
  4.49103038E-03 -4.12199489E-04  1.43541511E-04  0.00000000E+00  2.42428844E-04
  1.25513251E-03 -4.19746510E-04  0.00000000E+00  2.80983267E-03 -1.12676764E-03
  1.73616435E-04  0.00000000E+00  3.41010373E-04  0.00000000E+00  0.00000000E+00
 -5.29658009E-04  4.11286046E-04 -1.11971104E-04 -2.01713532E-03  1.18140483E-03
 -3.04533630E-04  8.62063995E-04 -1.44289751E-03 -1.11971104E-04 -2.01713532E-03
  1.18140483E-03 -3.04533630E-04  8.62063995E-04  1.44289751E-03 -6.02483857E-05
 -6.62156654E-04  3.12906794E-05  1.48326509E-04  2.79305447E-04  0.00000000E+00
 -2.37233695E-05 -8.02744038E-04  1.51831929E-04  4.88083405E-05 -1.29582048E-04
  2.63474743E-04 -2.37233695E-05 -8.02744038E-04  1.51831929E-04  4.88083405E-05
 -1.29582048E-04 -2.63474743E-04 -5.86926227E-03 -4.80580989E-03  1.22915070E-04
 -2.72930824E-04  0.00000000E+00 -1.33431603E-04 -3.27452211E-04  5.91494558E-04
  0.00000000E+00 -6.27468529E-03  3.01166309E-04 -2.50325760E-03  0.00000000E+00
 -3.46331828E-04  0.00000000E+00  0.00000000E+00 -2.45043591E-04 -2.69287576E-04
  5.42491363E-06  1.08692405E-03 -3.85121632E-04 -1.42520107E-04 -4.91536748E-06
 -2.43795381E-04  5.42491363E-06  1.08692405E-03 -3.85121632E-04 -1.42520107E-04
 -4.91536748E-06  2.43795381E-04 -1.22025930E-05  7.45048781E-04  1.39144493E-04
  1.72145938E-04  1.82703612E-04  0.00000000E+00 -3.97787310E-01 -3.27350043E-01
  2.55681393E-05  2.52892531E-04  0.00000000E+00 -1.33967990E-02  8.44784727E-04
 -4.96498712E-04  0.00000000E+00  1.57835396E-02  3.94042368E-03 -4.47665456E-04
  0.00000000E+00 -2.93270493E-04  0.00000000E+00  0.00000000E+00 -2.10707506E-04
 -2.02739489E-04  1.78215205E-05  7.67482673E-04 -8.04486676E-04  6.48316974E-04
 -6.78414559E-05  1.14004988E-03  1.78215205E-05  7.67482673E-04 -8.04486676E-04
  6.48316974E-04 -6.78414559E-05 -1.14004988E-03  3.98339729E-01  3.27804665E-01
  2.49810783E-04  4.51652974E-05  0.00000000E+00  1.34146851E-02 -5.62415601E-04
  8.05045089E-04  0.00000000E+00 -1.57914397E-02 -7.63141365E-04  3.89225397E-03
  0.00000000E+00  2.94390831E-04  0.00000000E+00  0.00000000E+00 -2.40856115E-04
  1.65596833E-04  5.87790205E-03  4.81291350E-03 -2.82456873E-04  1.00852877E-04
  0.00000000E+00  1.33781462E-04  6.17508039E-04 -2.79579918E-04  0.00000000E+00
  6.27847693E-03 -2.52091289E-03  9.98279508E-05  0.00000000E+00  3.46775900E-04
  0.00000000E+00  0.00000000E+00 -2.85614597E-04  2.27265506E-04 -1.79790294E-05
 -7.70313544E-04  8.06138459E-04 -1.19977019E-04  6.42009479E-04 -1.14206558E-03
 -1.79790294E-05 -7.70313544E-04  8.06138459E-04 -1.19977019E-04  6.42009479E-04
  1.14206558E-03  1.21166973E-05 -7.45933855E-04 -1.39064964E-04  1.68549163E-04