mFile = /v/bigbox6/home/yihan/qchem/qchem.mbh2/bin/mpi/machines
Parallel job running on 4 processors.
Parallel job running on 4 processors.
Parallel job running on 4 processors.
Parallel job running on 4 processors.

cmd = rsh m5 /v/bigbox6/home/yihan/qchem/qchem.mbh2/bin/get_hostid 71874233 > /scratch/qchem21236/lic.dat
                  Welcome to Q-Chem
     A Quantum Leap Into The Future Of Chemistry

 Y. Shao, L. Fusti-Molnar, Y. Jung, J. Kussmann, C. Ochsenfeld,
 S. T. Brown, A. T. B. Gilbert, L. V. Slipchenko,S. V. Levchenko,
 D. P. O'Neill, R. A. DiStasio Jr., R. C. Lochan, T. Wang,
 G. J. O. Beran, N. A. Besley, J. M. Herbert, C. Y. Lin,
 T. Van Voorhis, S. H. Chien, A. Sodt, R. P. Steele, 
 V. A. Rassolov, P. E. Maslen, P. P. Korambath, R. D. Adamson,
 B. Austin, J. Baker, E. F. C. Byrd, H. Dachsel, R. J. Doerksen,
 A. Dreuw, B. D. Dunietz, A. D. Dutoi, T. R. Furlani,
 S. R. Gwaltney, A. Heyden, S. Hirata, C.-P. Hsu, G. Kedziora,
 R. Z. Khaliullin, P. Klunzinger, A. M. Lee, M. S. Lee, W. Liang,
 I. Lotan, N. Nair, B. Peters, E. I. Proynov, P. A. Pieniazek, 
 Y. M. Rhee, J. Ritchie, E. Rosta, C. D. Sherrill, 
 A. C. Simmonett, J. E. Subotnik, H. L. Woodcock III,
 W. Zhang, A. T. Bell, A. K. Chakraborty, D. M. Chipman,
 F. J. Keil, A. Warshel, W. J. Hehre, H. F. Schaefer III,
 J. Kong, A. I. Krylov, P. M. W. Gill, M. Head-Gordon,
 Q-Chem, Version 3.1, Q-Chem, Inc., Pittsburgh, PA (2007).

 Additional authors for Version 3.1: 
 Z. Gan, Y. Zhao, N. E. Schultz, D. Truhlar, E. Epifanovsky and M. Oana.

 Additional authors for Version 3.2: 
 R. Baer, B. R. Brooks, D. Casanova, J.-D. Chai, C.-L. Cheng, 
 C. Cramer, D. Crittenden, A. Ghysels, G. Hawkins, E. G. Hohenstein, 
 C. Kelley, W. Kurlancheek, D. Liotard, E. Livshits, P. Manohar, 
 A. Marenich, D. Neuhauser, R. Olson, M. A. Rohrdanz, K. S. Thanthiriwatte, 
 A. J. W. Thom, V. Vanovschi, C. F. Williams, Q. Wu and Z.-Q. You. 


 Intel X86 Linux Version

 Q-chem begins on Tue Jun 30 15:53:38 2009  

 Parallel job on  4  processors

theFileMan(): MAXOPENFILES=974 MAX_SUB_FILE_NUM=16
Maximum size of a physical file is 2.0 GB, maximum size of a tmp-file is 32.0 GB


--------------------------------------------------------------
User input:
--------------------------------------------------------------
$comment
Methanol gas phase
$end

$molecule
 read methanol.b3lypd.cc-pvtz.out.qchem.xyz
$end

$rem
jobtype            freq
exchange           b3lyp
correlation        lyp
empirical_dispersion   true
basis              cc-pvtz         Basis Set
symmetry           false
$end


--------------------------------------------------------------
 Writing REM_CC_EA            0
 ----------------------------------------------------
       Standard Nuclear Orientation (Angstroms)
    I     Atom         X            Y            Z
 ----------------------------------------------------
    1      C       0.665023    -0.019522     0.000001
    2      H       1.084192     0.986565    -0.000732
    3      H       1.029027    -0.545184    -0.890862
    4      H       1.029152    -0.543943     0.891551
    5      O      -0.749351     0.122000     0.000003
    6      H      -1.137696    -0.756304     0.000014
 ----------------------------------------------------
 Molecular Point Group                 C1    NOp =  1
 Largest Abelian Subgroup              C1    NOp =  1
 Nuclear Repulsion Energy =    40.2676904422 hartrees
 There are        9 alpha and        9 beta electrons
 Requested basis set is cc-pVTZ
 There are 44 shells and 116 basis functions

Total QAlloc Memory Limit   2000 MB
Mega-Array Size        77 MB
MEM_STATIC part        62 MB

                       Distance Matrix (Angstroms)
             C (  1)   H (  2)   H (  3)   H (  4)   O (  5)
   H (  2)  1.089915
   H (  3)  1.096566  1.772464
   H (  4)  1.096571  1.772471  1.782414
   O (  5)  1.421437  2.027154  2.097952  2.097954
   H (  6)  1.947471  2.823894  2.352216  2.352693  0.960327
 
 A cutoff of  1.0D-11 yielded    990 shell pairs
 There are   6950 function pairs (  8767 Cartesian)
Evaluating contribution to one-electron hamiltonian from nuclear
 Smallest overlap matrix eigenvalue = 1.98E-03
 Multipole matrices computed through 2nd order
 Guess from superposition of atomic densities
 Warning:  Energy on first SCF cycle will be non-variational
 A restricted hybrid HF-DFT SCF calculation will be
 performed using Pulay DIIS extrapolation
 Exchange:     0.2000 Hartree-Fock + 0.0800 Slater + 0.7200 Becke88
 Correlation:  0.8100 LYP + 0.1900 VWN1RPA
 Using SG-1 standard quadrature grid
 SCF converges when DIIS error is below 1.0E-08
 Empirical dispersion using d=20.000000, s6=1.050000
 Empirical dispersion =    -1.1058 kcal/mol
 Empirical dispersion =   -0.001762184 hartree
 ---------------------------------------
  Cycle       Energy         DIIS Error
 ---------------------------------------
    1    -115.8758371578      4.03E-02
    2    -115.7092359360      6.87E-03
    3    -115.6630352815      9.47E-03
    4    -115.7727964208      9.47E-04
    5    -115.7738384590      3.47E-04
    6    -115.7739969943      4.79E-05
    7    -115.7740000300      2.95E-06
    8    -115.7740000427      7.13E-07
    9    -115.7740000433      1.21E-07
   10    -115.7740000430      1.77E-08
   11    -115.7740000429      1.92E-09 Convergence criterion met
 ---------------------------------------
 SCF time:  CPU 10.79 s  wall 11.44 s
 Analysis of SCF Wavefunction
 
 --------------------------------------------------------------
                    Orbital Energies (a.u.)
 --------------------------------------------------------------
 
 Alpha MOs
 -- Occupied --
-19.124 -10.214  -1.018  -0.684  -0.509  -0.441  -0.427  -0.340
 -0.278
 -- Virtual --
  0.030   0.066   0.111   0.112   0.155   0.257   0.272   0.343
  0.386   0.443   0.456   0.461   0.502   0.527   0.529   0.641
  0.676   0.687   0.744   0.870   0.904   0.977   0.990   1.043
  1.053   1.069   1.161   1.227   1.268   1.307   1.319   1.348
  1.369   1.506   1.811   1.895   1.908   1.991   2.045   2.177
  2.196   2.274   2.470   2.596   2.712   2.773   2.790   2.825
  2.895   2.915   2.956   2.966   2.982   3.042   3.168   3.280
  3.303   3.360   3.365   3.419   3.440   3.478   3.499   3.563
  3.683   3.702   3.766   3.806   3.808   3.923   3.923   3.951
  4.078   4.102   4.108   4.221   4.238   4.297   4.398   4.613
  4.639   4.690   4.772   4.878   4.940   4.986   5.084   5.167
  5.174   5.190   5.349   5.505   5.741   5.786   5.826   5.963
  6.156   6.474   6.645   6.682   6.720   6.836   6.920   7.084
  7.373  11.421  12.938
 --------------------------------------------------------------
 
          Ground-State Mulliken Net Atomic Charges

     Atom                 Charge (a.u.)
  ----------------------------------------
      1 C                    -0.060581
      2 H                     0.097169
      3 H                     0.056547
      4 H                     0.056547
      5 O                    -0.349833
      6 H                     0.200151
  ----------------------------------------
  Sum of atomic charges =     0.000000

 -----------------------------------------------------------------
                    Cartesian Multipole Moments
 -----------------------------------------------------------------
    Charge (ESU x 10^10)
                 0.0000
    Dipole Moment (Debye)
         X       0.7521      Y      -1.4317      Z      -0.0001
       Tot       1.6172
    Quadrupole Moments (Debye-Ang)
        XX     -12.8740     XY       2.1652     YY     -12.2266
        XZ      -0.0002     YZ      -0.0001     ZZ     -13.7654
    Octapole Moments (Debye-Ang^2)
       XXX      -4.7203    XXY      -2.1667    XYY      -1.9452
       YYY      -0.4115    XXZ      -0.0002    XYZ      -0.0001
       YYZ      -0.0011    XZZ      -0.5716    YZZ      -0.5426
       ZZZ       0.0008
    Hexadecapole Moments (Debye-Ang^3)
      XXXX     -62.0938   XXXY       3.6453   XXYY     -12.6783
      XYYY       2.8431   YYYY     -20.4932   XXXZ      -0.0004
      XXYZ      -0.0002   XYYZ      -0.0014   YYYZ      -0.0002
      XXZZ     -14.3834   XYZZ      -0.1390   YYZZ      -6.9651
      XZZZ       0.0008   YZZZ       0.0000   ZZZZ     -20.3154
 -----------------------------------------------------------------
 Calculating MO derivatives via CPSCF
 CPSCF will be done in 4 segments to save memory.
ibat: 0
 setfozp, leftpe=           6
 isub=           6 nov=        1926  itype=           5
 m=           1  extending space
 m=           2  extending space
 m=           3  extending space
 m=           4  extending space
 m=           5  extending space
 m=           6  extending space
   1         0           6      0.021157    0.006074 aaa
 setfozp, leftpe=           6
 isub=          12 nov=        1926  itype=           5
 m=           1  extending space
 m=           2  extending space
 m=           3  extending space
 m=           4  extending space
 m=           5  extending space
 m=           6  extending space
   2         0           6      0.006860    0.002305 aaa
 setfozp, leftpe=           6
 isub=          18 nov=        1926  itype=           5
 m=           1  extending space
 m=           2  extending space
 m=           3  extending space
 m=           4  extending space
 m=           5  extending space
 m=           6  extending space
   3         0           6      0.000768    0.000305 aaa
 setfozp, leftpe=           6
 isub=          24 nov=        1926  itype=           5
 m=           1  extending space
 m=           2  extending space
 m=           3  extending space
 m=           4  extending space
 m=           5  extending space
 m=           6  extending space
   4         0           6      0.000084    0.000027 aaa
 setfozp, leftpe=           6
 isub=          30 nov=        1926  itype=           5
 m=           1  extending space
 m=           4  extending space
 m=           5  extending space
   5         3           3      0.000006    0.000002 aaa
 setfozp, leftpe=           3
 isub=          33 nov=        1926  itype=           5
   6         6           0      0.000000    0.000000    Roots Converged aaa
 loff=                     0  npelag=           6
44 in make_fx
77 in make_fx
ThisX: 2
 Theta
            1           2           3           4           5           6
    1  -0.0000037  -0.0000185  -0.0000397  -0.0000374  -0.0000128  -0.3273612
    2  -0.0000026  -0.0000135  -0.0000333  -0.0000460   0.0000045   0.4289790
    3  -0.0238247  -0.0895558  -0.2440488  -0.2589151  -0.0087117  -0.0011181
    4  -0.0002567  -0.0009673  -0.0026273  -0.0027979  -0.0000516   0.1116274
    5  -0.0000004  -0.0000157  -0.0000070  -0.0000128   0.0000082  -0.2095380
    6   0.0000315   0.0002407   0.0003486   0.0004870  -0.0000546   0.1144505
    7  -0.0271626  -0.2193707  -0.3236559  -0.4388211   0.1950363  -0.0001362
    8  -0.0000048  -0.0000302  -0.0000570  -0.0000752   0.0000257  -0.1211854
    9   0.0000031   0.0000359   0.0000553   0.0000708  -0.0000451   0.1038720
   10  -0.0225118  -0.2557732  -0.2941606  -0.3881576   0.1618575  -0.0001060
   11  -0.0000053  -0.0000553  -0.0000722  -0.0001268   0.0000382   0.2973345
   12  -0.0000106  -0.0000865  -0.0001077  -0.0001647  -0.0000258  -0.5477095
   13   0.0000026  -0.0000036   0.0000201   0.0000153  -0.0000592   0.3317828
   14  -0.0000005  -0.0000650  -0.0000523  -0.0001741   0.0000633   0.8355036
   15  -0.0000868  -0.0234550  -0.0204906  -0.0656602   0.0204819  -0.0010960
   16   0.0000106   0.0000205   0.0000710   0.0000702  -0.0000037  -0.1306090
   17   0.0305878   0.0175496   0.1550694   0.0664174   0.0285927  -0.0005799
   18  -0.0000306   0.0000039  -0.0000944   0.0000365  -0.0000750  -0.3633256
   19   0.0269122   0.0635498   0.2004005   0.1298113  -0.0472258   0.0002998
   20   0.0000637   0.0183485   0.0148099   0.0209493  -0.0174718   0.0000825
   21   0.0000055   0.0001125   0.0001120   0.0001912  -0.0000244  -0.0598702
   22  -0.0000191  -0.0004519  -0.0004205  -0.0007490   0.0000721  -0.2166809
   23   0.0238815   0.3266439   0.3936581   0.5450137  -0.2116259   0.0002597
   24  -0.0000155   0.0000565  -0.0000391   0.0000518  -0.0000839   0.2702376
   25   0.0490480  -0.0945163   0.1807360  -0.0590444   0.2228693  -0.0029670
   26  -0.0002006   0.0004806  -0.0006451   0.0004326  -0.0011081  -0.6803484
   27  -0.0000328   0.0000721  -0.0000864   0.0001271  -0.0002502   0.1383426
   28   0.0000243  -0.0009938  -0.0005772  -0.0016025   0.0004441   0.1821185
   29  -0.0046032  -0.5745344  -0.3929111  -0.8876603   0.1437424  -0.0000891
   30  -0.0266086  -0.6621477  -0.4710741  -0.6394996   0.3137112  -0.0003975
   31   0.0000050   0.0001919   0.0001078   0.0002407  -0.0000526  -0.1055182
   32   0.0000197   0.0000682   0.0000344  -0.0001696   0.0001808  -0.0134671
   33  -0.0000239  -0.0002128  -0.0001425  -0.0000663  -0.0002679  -0.5655279
   34   0.0000019  -0.0000360   0.0000110   0.0000269   0.0000178   0.7755729
   35  -0.0161830  -0.1257993  -0.1403844  -0.0699641   0.0574664  -0.0000012
   36  -0.0001721   0.0005612  -0.0005581   0.0008654  -0.0008258   0.2297166
   37   0.0441951  -0.1287635   0.1539386  -0.1987970   0.1969186   0.0014451
   38  -0.0000167   0.0003407   0.0000517   0.0003025  -0.0001093   0.7268769
   39   0.0000373  -0.0002471   0.0001008  -0.0002141   0.0002250   0.1725485
   40   0.0008135   0.3841029   0.1661823   0.3711390  -0.0893939   0.0005805
   41  -0.0000035  -0.0010370  -0.0004562  -0.0010041   0.0002210   0.1682173
   42   0.0000074   0.0000853   0.0000800   0.0001219  -0.0000204  -1.3040375
   43  -0.0000163  -0.0002967  -0.0002335  -0.0003556   0.0000404  -0.0294418
   44  -0.0000293  -0.0005255  -0.0004164  -0.0006808   0.0000252  -0.0467276
   45   0.0176508   0.7118853   0.5264311   0.9189582  -0.3025387   0.0001608
   46   0.0000517  -0.0004143   0.0000046  -0.0006713  -0.0000246  -0.0978142
   47   0.0077568   0.0225282   0.0480324   0.0182504   0.0129791   0.0001098
   48  -0.0390096  -0.0735188  -0.2228988  -0.0388154   0.0521687  -0.0001930
   49   0.0001040   0.0003463   0.0006399   0.0003811   0.0001695   0.2726667
   50  -0.0016454  -0.0622641  -0.0400397  -0.0584856   0.0300542  -0.0007180
   51   0.0000020  -0.0000024  -0.0000004  -0.0000050   0.0000357   0.0708889
   52   0.0520870   0.4991787   0.4795144   0.5796572  -0.0113629   0.0001134
   53  -0.0001234  -0.0013584  -0.0012068  -0.0016193   0.0000418   0.1467631
   54  -0.0000091  -0.0002023  -0.0001686  -0.0002275   0.0001938   0.1789105
   55   0.0000090  -0.0000178   0.0000370  -0.0000148   0.0000404  -0.1545344
   56  -0.0107896   0.0715527  -0.0130444   0.0907875  -0.0681960  -0.0000390
   57  -0.0034980   0.0131593  -0.0104624   0.0177956  -0.0151591  -0.0000507
   58  -0.0021524   0.5760965   0.2872465   0.6205510  -0.2751862   0.0003253
   59  -0.0000267  -0.0013079  -0.0007660  -0.0013986   0.0004128   0.0729872
   60  -0.0000196   0.0007466   0.0002672   0.0008257  -0.0001227   0.4297192
   61   0.0288851  -0.1246366   0.0638881  -0.1654866   0.0610194   0.0004316
   62  -0.0000223   0.0001745   0.0000019   0.0001567  -0.0002716  -0.2135041
   63   0.0000218   0.0002013   0.0001909   0.0002331   0.0000546   0.0208705
   64  -0.0012645  -0.2882157  -0.1455399  -0.2514127   0.2179327  -0.0002945
   65  -0.0000184   0.0002301   0.0001031   0.0004767  -0.0002051  -0.1246575
   66   0.0048752  -0.0778102  -0.0353945  -0.1460783   0.0498901  -0.0001478
   67   0.0000128   0.0001390   0.0001209   0.0001354   0.0000071  -0.0073944
   68  -0.0000509   0.0005314   0.0002955   0.0010761  -0.0006126   0.0745224
   69  -0.0074172   0.0749766   0.0418474   0.1519415  -0.0927331  -0.0004559
   70   0.0040331  -0.1119230  -0.0454995  -0.1818533  -0.0126042   0.0014359
   71   0.0003282  -0.0097597  -0.0040503  -0.0157547  -0.0011323  -0.0126022
   72   0.0000183   0.0000706   0.0001332   0.0000118  -0.0002259  -0.1523339
   73  -0.0099868  -0.0664022  -0.0812288  -0.0811260  -0.0434799  -0.0000313
   74  -0.0001787  -0.0005212  -0.0010942  -0.0005374  -0.0005735  -0.1506424
   75   0.0330342   0.1262678   0.2178113   0.1300197   0.0944433  -0.0007407
   76   0.0000264  -0.0000650   0.0000790  -0.0001114   0.0000747   0.2571340
   77   0.0000086  -0.0000067   0.0000553   0.0000461   0.0000281   0.1109861
   78   0.0274768  -0.0177009   0.1364288  -0.0106924   0.0592409  -0.0004150
   79  -0.0000131   0.0001392   0.0000235   0.0001688  -0.0000560  -0.1860650
   80  -0.0000010  -0.0000171   0.0000585   0.0000705  -0.0000204   0.0743713
   81  -0.0000198   0.0001232  -0.0000070   0.0001422  -0.0000780  -0.0923643
   82   0.0169908  -0.1367182  -0.1148721  -0.3915865   0.1225867  -0.0002397
   83   0.0000185  -0.0000660  -0.0000451  -0.0003152   0.0000967   0.2103946
   84  -0.0000227   0.0000240  -0.0000284   0.0002583  -0.0001588  -0.0086943
   85   0.0239308   0.4065375   0.2532907   0.2054544   0.0403672  -0.0000154
   86  -0.0000387  -0.0005760  -0.0003586  -0.0002658  -0.0001305  -0.1718644
   87  -0.0028729   0.0048356  -0.0091087   0.0256402   0.0411929  -0.0001752
   88  -0.0000026   0.0011933   0.0004159   0.0014511  -0.0001464   0.8522032
   89   0.0016542  -0.4895760  -0.1706843  -0.6120064   0.0330791   0.0015635
   90   0.0000011   0.0011022   0.0004238   0.0012849  -0.0004757  -0.6868520
   91   0.0000511   0.0010031   0.0006585   0.0009346   0.0000088   0.0698956
   92  -0.0258405  -0.6000774  -0.3645103  -0.5253300   0.1388101   0.0000049
   93  -0.0000019  -0.0002593  -0.0001101  -0.0002309   0.0000671  -0.0896922
   94   0.0000497   0.0015035   0.0007800   0.0014072  -0.0001199   0.2736271
   95   0.0175731   0.8607224   0.4210857   0.7712574  -0.3488329   0.0001830
   96   0.0193243   0.0351379   0.0876184   0.0398171   0.0688363  -0.0003099
   97   0.0000089   0.0002092   0.0001206   0.0002116   0.0000627   0.0397305
   98  -0.0014265   0.0095825   0.0149931   0.0062222  -0.0588256   0.0000771
   99  -0.0154045  -0.0238214  -0.0964077  -0.0173422  -0.0104522   0.0000271
  100  -0.0000037  -0.0000455  -0.0000514  -0.0000522   0.0000554  -0.0542933
  101   0.0000137  -0.0000236   0.0000459  -0.0000289   0.0000743   0.1175719
  102  -0.0427233  -0.0381133  -0.2345343  -0.0282800  -0.1251639  -0.0000919
  103  -0.0000133  -0.0000546  -0.0000955  -0.0000600  -0.0000134  -0.0614452
  104  -0.0000059  -0.0000161  -0.0000380  -0.0000096   0.0000254   0.2788474
  105   0.0000046  -0.0000068   0.0000298   0.0000094   0.0000733  -0.0074171
  106  -0.0000111  -0.0000953  -0.0000983  -0.0001282  -0.0000217   0.6209019
  107   0.0000072   0.0000583   0.0000539  -0.0000169   0.0000677   3.0328360
            7           8           9
    1  -0.0000251   0.0000350   0.1918552
    2   0.0000762   0.0000242  -0.0817778
    3   0.0312087   0.0854579  -0.0002415
    4   0.0002606   0.0007915   0.0067976
    5  -0.0000413  -0.0000333  -0.2298417
    6  -0.0001741  -0.0000526  -0.0583912
    7  -0.0091087  -0.1015993   0.0000579
    8   0.0000035   0.0000098   0.0302787
    9  -0.0000004  -0.0000420  -0.1034014
   10   0.0756351   0.0047720  -0.0000833
   11   0.0000743  -0.0000383  -0.2226607
   12   0.0000026  -0.0000481   0.1333195
   13   0.0000903   0.0000660   0.0431183
   14   0.0002532   0.0000194  -0.2012453
   15   0.0714187   0.0254813   0.0002424
   16  -0.0000564   0.0000003  -0.3161307
   17  -0.0281834  -0.0186257   0.0003028
   18  -0.0000315   0.0000200   0.1159138
   19   0.0875537   0.0189856  -0.0000904
   20   0.0070519  -0.0063122  -0.0000565
   21  -0.0000142   0.0000492   0.0924148
   22   0.0001236  -0.0000280  -0.0350327
   23   0.0296658  -0.0482530   0.0001143
   24   0.0000458   0.0000353   0.4639700
   25   0.0040432  -0.0722766   0.0000279
   26   0.0000158   0.0004406  -0.0333960
   27   0.0000548   0.0001372   0.0259706
   28   0.0007289   0.0003918   0.1772561
   29   0.3638638   0.2097164  -0.0006990
   30  -0.3057125  -0.0162643  -0.0000456
   31   0.0001190   0.0003127   0.1848026
   32   0.0001893   0.0000239  -0.1272796
   33  -0.0000389   0.0000972   0.1189713
   34   0.0000427  -0.0000027  -0.5404905
   35  -0.1711890  -0.0244684   0.0000603
   36  -0.0007814   0.0001383  -0.0188528
   37   0.2141562  -0.0193809  -0.0001152
   38   0.0000062   0.0000012   0.1556872
   39   0.0000561  -0.0001041  -0.1844143
   40  -0.0621810  -0.0530786  -0.0011384
   41   0.0002590   0.0002728  -0.2561359
   42  -0.0001773   0.0000125   0.4125601
   43   0.0000159   0.0000221  -0.5390489
   44   0.0000461  -0.0000347   0.1276965
   45   0.0399975  -0.0843829   0.0001247
   46   0.0004974   0.0000288  -0.1290822
   47   0.0063218  -0.0345122   0.0000306
   48  -0.2753731  -0.0670040  -0.0000641
   49   0.0003800  -0.0000271   0.0754363
   50   0.0282339   0.0309778  -0.0004959
   51  -0.0000712  -0.0001423   0.1609586
   52   0.0007251  -0.1785001  -0.0005809
   53   0.0000207   0.0002769  -0.2924506
   54  -0.0001526  -0.0000061  -0.0457596
   55  -0.0000599  -0.0000756  -0.2638675
   56  -0.0684115  -0.0027256   0.0000443
   57  -0.0182724   0.0032191  -0.0000752
   58   0.0752974   0.0002331   0.0003726
   59  -0.0001314  -0.0000213   0.2402896
   60  -0.0001939  -0.0000982   0.1872440
   61   0.1366059   0.0233729   0.0001117
   62   0.0000635   0.0000176  -0.1439266
   63  -0.0000123  -0.0000127   0.0501214
   64  -0.1417276  -0.0790140  -0.0001462
   65  -0.0002216   0.0000094  -0.0424754
   66   0.1021602   0.0426273  -0.0002605
   67   0.0000032  -0.0000493   0.0025354
   68  -0.0004883  -0.0001418  -0.1417294
   69  -0.0615279  -0.0130224   0.0009924
   70   0.1841883   0.0637311  -0.0063580
   71   0.0158192   0.0054871   0.0696129
   72   0.0003639   0.0002004   0.1422253
   73   0.0424029   0.0511615  -0.0000838
   74  -0.0002637   0.0003588  -0.4260728
   75   0.0417718  -0.0706198  -0.0022198
   76   0.0002110  -0.0000091   0.0442554
   77  -0.0000348  -0.0000131  -0.1394162
   78   0.1424604  -0.0354397  -0.0000619
   79  -0.0000989   0.0000110   0.0213053
   80  -0.0000780  -0.0001847   0.0106555
   81  -0.0001094  -0.0001044  -0.2504411
   82   0.1112810   0.0757282  -0.0005480
   83   0.0002292   0.0001135   0.1893303
   84  -0.0001333   0.0000425  -0.0965198
   85   0.1027871  -0.1139244   0.0001611
   86  -0.0002503   0.0000234  -0.1418295
   87  -0.1224524  -0.0993336   0.0000157
   88  -0.0009295  -0.0005280  -0.4811667
   89   0.4934403   0.2710257  -0.0011973
   90  -0.0003926   0.0000817   0.3555486
   91  -0.0000430  -0.0002063  -0.3135106
   92  -0.0881933   0.0853740  -0.0001914
   93   0.0000008   0.0000032  -0.1059522
   94  -0.0001191  -0.0000525   0.2051867
   95   0.1502672   0.0511988  -0.0001210
   96   0.0288101  -0.0309596   0.0000671
   97  -0.0001133  -0.0000783  -0.5517719
   98   0.0742111   0.0350521   0.0000307
   99  -0.0982312   0.0017327  -0.0000161
  100  -0.0000805  -0.0000484   0.0503524
  101   0.0000462  -0.0000191  -0.3335004
  102  -0.1791214   0.0531135  -0.0001892
  103  -0.0000501   0.0000122   0.3697041
  104  -0.0000336  -0.0000284   0.3307395
  105  -0.0000338  -0.0000400   0.0201610
  106   0.0001345   0.0000652  -0.3374766
  107   0.0004435  -0.0000082  -1.0636781
118 in make_fx
136 in make_fx
i: 0 Offset: 0
i: 1 Offset: 174928
i: 2 Offset: 201840
i: 3 Offset: 228752
i: 4 Offset: 255664
i: 5 Offset: 282576
166 in make_fx
 Calculating analytic Hessian of the SCF energy
 Polarizability Matrix (a.u.)
            1           2           3
    1 -20.5026711  -0.6657073  -0.0004319
    2  -0.6657073 -18.7040881  -0.0000053
    3  -0.0004319  -0.0000053 -17.2545662
ThisX: 2
 Theta
            1           2           3           4           5           6
    1  -0.0000037  -0.0000185  -0.0000397  -0.0000374  -0.0000128  -0.3273612
    2  -0.0000026  -0.0000135  -0.0000333  -0.0000460   0.0000045   0.4289790
    3  -0.0238247  -0.0895558  -0.2440488  -0.2589151  -0.0087117  -0.0011181
    4  -0.0002567  -0.0009673  -0.0026273  -0.0027979  -0.0000516   0.1116274
    5  -0.0000004  -0.0000157  -0.0000070  -0.0000128   0.0000082  -0.2095380
    6   0.0000315   0.0002407   0.0003486   0.0004870  -0.0000546   0.1144505
    7  -0.0271626  -0.2193707  -0.3236559  -0.4388211   0.1950363  -0.0001362
    8  -0.0000048  -0.0000302  -0.0000570  -0.0000752   0.0000257  -0.1211854
    9   0.0000031   0.0000359   0.0000553   0.0000708  -0.0000451   0.1038720
   10  -0.0225118  -0.2557732  -0.2941606  -0.3881576   0.1618575  -0.0001060
   11  -0.0000053  -0.0000553  -0.0000722  -0.0001268   0.0000382   0.2973345
   12  -0.0000106  -0.0000865  -0.0001077  -0.0001647  -0.0000258  -0.5477095
   13   0.0000026  -0.0000036   0.0000201   0.0000153  -0.0000592   0.3317828
   14  -0.0000005  -0.0000650  -0.0000523  -0.0001741   0.0000633   0.8355036
   15  -0.0000868  -0.0234550  -0.0204906  -0.0656602   0.0204819  -0.0010960
   16   0.0000106   0.0000205   0.0000710   0.0000702  -0.0000037  -0.1306090
   17   0.0305878   0.0175496   0.1550694   0.0664174   0.0285927  -0.0005799
   18  -0.0000306   0.0000039  -0.0000944   0.0000365  -0.0000750  -0.3633256
   19   0.0269122   0.0635498   0.2004005   0.1298113  -0.0472258   0.0002998
   20   0.0000637   0.0183485   0.0148099   0.0209493  -0.0174718   0.0000825
   21   0.0000055   0.0001125   0.0001120   0.0001912  -0.0000244  -0.0598702
   22  -0.0000191  -0.0004519  -0.0004205  -0.0007490   0.0000721  -0.2166809
   23   0.0238815   0.3266439   0.3936581   0.5450137  -0.2116259   0.0002597
   24  -0.0000155   0.0000565  -0.0000391   0.0000518  -0.0000839   0.2702376
   25   0.0490480  -0.0945163   0.1807360  -0.0590444   0.2228693  -0.0029670
   26  -0.0002006   0.0004806  -0.0006451   0.0004326  -0.0011081  -0.6803484
   27  -0.0000328   0.0000721  -0.0000864   0.0001271  -0.0002502   0.1383426
   28   0.0000243  -0.0009938  -0.0005772  -0.0016025   0.0004441   0.1821185
   29  -0.0046032  -0.5745344  -0.3929111  -0.8876603   0.1437424  -0.0000891
   30  -0.0266086  -0.6621477  -0.4710741  -0.6394996   0.3137112  -0.0003975
   31   0.0000050   0.0001919   0.0001078   0.0002407  -0.0000526  -0.1055182
   32   0.0000197   0.0000682   0.0000344  -0.0001696   0.0001808  -0.0134671
   33  -0.0000239  -0.0002128  -0.0001425  -0.0000663  -0.0002679  -0.5655279
   34   0.0000019  -0.0000360   0.0000110   0.0000269   0.0000178   0.7755729
   35  -0.0161830  -0.1257993  -0.1403844  -0.0699641   0.0574664  -0.0000012
   36  -0.0001721   0.0005612  -0.0005581   0.0008654  -0.0008258   0.2297166
   37   0.0441951  -0.1287635   0.1539386  -0.1987970   0.1969186   0.0014451
   38  -0.0000167   0.0003407   0.0000517   0.0003025  -0.0001093   0.7268769
   39   0.0000373  -0.0002471   0.0001008  -0.0002141   0.0002250   0.1725485
   40   0.0008135   0.3841029   0.1661823   0.3711390  -0.0893939   0.0005805
   41  -0.0000035  -0.0010370  -0.0004562  -0.0010041   0.0002210   0.1682173
   42   0.0000074   0.0000853   0.0000800   0.0001219  -0.0000204  -1.3040375
   43  -0.0000163  -0.0002967  -0.0002335  -0.0003556   0.0000404  -0.0294418
   44  -0.0000293  -0.0005255  -0.0004164  -0.0006808   0.0000252  -0.0467276
   45   0.0176508   0.7118853   0.5264311   0.9189582  -0.3025387   0.0001608
   46   0.0000517  -0.0004143   0.0000046  -0.0006713  -0.0000246  -0.0978142
   47   0.0077568   0.0225282   0.0480324   0.0182504   0.0129791   0.0001098
   48  -0.0390096  -0.0735188  -0.2228988  -0.0388154   0.0521687  -0.0001930
   49   0.0001040   0.0003463   0.0006399   0.0003811   0.0001695   0.2726667
   50  -0.0016454  -0.0622641  -0.0400397  -0.0584856   0.0300542  -0.0007180
   51   0.0000020  -0.0000024  -0.0000004  -0.0000050   0.0000357   0.0708889
   52   0.0520870   0.4991787   0.4795144   0.5796572  -0.0113629   0.0001134
   53  -0.0001234  -0.0013584  -0.0012068  -0.0016193   0.0000418   0.1467631
   54  -0.0000091  -0.0002023  -0.0001686  -0.0002275   0.0001938   0.1789105
   55   0.0000090  -0.0000178   0.0000370  -0.0000148   0.0000404  -0.1545344
   56  -0.0107896   0.0715527  -0.0130444   0.0907875  -0.0681960  -0.0000390
   57  -0.0034980   0.0131593  -0.0104624   0.0177956  -0.0151591  -0.0000507
   58  -0.0021524   0.5760965   0.2872465   0.6205510  -0.2751862   0.0003253
   59  -0.0000267  -0.0013079  -0.0007660  -0.0013986   0.0004128   0.0729872
   60  -0.0000196   0.0007466   0.0002672   0.0008257  -0.0001227   0.4297192
   61   0.0288851  -0.1246366   0.0638881  -0.1654866   0.0610194   0.0004316
   62  -0.0000223   0.0001745   0.0000019   0.0001567  -0.0002716  -0.2135041
   63   0.0000218   0.0002013   0.0001909   0.0002331   0.0000546   0.0208705
   64  -0.0012645  -0.2882157  -0.1455399  -0.2514127   0.2179327  -0.0002945
   65  -0.0000184   0.0002301   0.0001031   0.0004767  -0.0002051  -0.1246575
   66   0.0048752  -0.0778102  -0.0353945  -0.1460783   0.0498901  -0.0001478
   67   0.0000128   0.0001390   0.0001209   0.0001354   0.0000071  -0.0073944
   68  -0.0000509   0.0005314   0.0002955   0.0010761  -0.0006126   0.0745224
   69  -0.0074172   0.0749766   0.0418474   0.1519415  -0.0927331  -0.0004559
   70   0.0040331  -0.1119230  -0.0454995  -0.1818533  -0.0126042   0.0014359
   71   0.0003282  -0.0097597  -0.0040503  -0.0157547  -0.0011323  -0.0126022
   72   0.0000183   0.0000706   0.0001332   0.0000118  -0.0002259  -0.1523339
   73  -0.0099868  -0.0664022  -0.0812288  -0.0811260  -0.0434799  -0.0000313
   74  -0.0001787  -0.0005212  -0.0010942  -0.0005374  -0.0005735  -0.1506424
   75   0.0330342   0.1262678   0.2178113   0.1300197   0.0944433  -0.0007407
   76   0.0000264  -0.0000650   0.0000790  -0.0001114   0.0000747   0.2571340
   77   0.0000086  -0.0000067   0.0000553   0.0000461   0.0000281   0.1109861
   78   0.0274768  -0.0177009   0.1364288  -0.0106924   0.0592409  -0.0004150
   79  -0.0000131   0.0001392   0.0000235   0.0001688  -0.0000560  -0.1860650
   80  -0.0000010  -0.0000171   0.0000585   0.0000705  -0.0000204   0.0743713
   81  -0.0000198   0.0001232  -0.0000070   0.0001422  -0.0000780  -0.0923643
   82   0.0169908  -0.1367182  -0.1148721  -0.3915865   0.1225867  -0.0002397
   83   0.0000185  -0.0000660  -0.0000451  -0.0003152   0.0000967   0.2103946
   84  -0.0000227   0.0000240  -0.0000284   0.0002583  -0.0001588  -0.0086943
   85   0.0239308   0.4065375   0.2532907   0.2054544   0.0403672  -0.0000154
   86  -0.0000387  -0.0005760  -0.0003586  -0.0002658  -0.0001305  -0.1718644
   87  -0.0028729   0.0048356  -0.0091087   0.0256402   0.0411929  -0.0001752
   88  -0.0000026   0.0011933   0.0004159   0.0014511  -0.0001464   0.8522032
   89   0.0016542  -0.4895760  -0.1706843  -0.6120064   0.0330791   0.0015635
   90   0.0000011   0.0011022   0.0004238   0.0012849  -0.0004757  -0.6868520
   91   0.0000511   0.0010031   0.0006585   0.0009346   0.0000088   0.0698956
   92  -0.0258405  -0.6000774  -0.3645103  -0.5253300   0.1388101   0.0000049
   93  -0.0000019  -0.0002593  -0.0001101  -0.0002309   0.0000671  -0.0896922
   94   0.0000497   0.0015035   0.0007800   0.0014072  -0.0001199   0.2736271
   95   0.0175731   0.8607224   0.4210857   0.7712574  -0.3488329   0.0001830
   96   0.0193243   0.0351379   0.0876184   0.0398171   0.0688363  -0.0003099
   97   0.0000089   0.0002092   0.0001206   0.0002116   0.0000627   0.0397305
   98  -0.0014265   0.0095825   0.0149931   0.0062222  -0.0588256   0.0000771
   99  -0.0154045  -0.0238214  -0.0964077  -0.0173422  -0.0104522   0.0000271
  100  -0.0000037  -0.0000455  -0.0000514  -0.0000522   0.0000554  -0.0542933
  101   0.0000137  -0.0000236   0.0000459  -0.0000289   0.0000743   0.1175719
  102  -0.0427233  -0.0381133  -0.2345343  -0.0282800  -0.1251639  -0.0000919
  103  -0.0000133  -0.0000546  -0.0000955  -0.0000600  -0.0000134  -0.0614452
  104  -0.0000059  -0.0000161  -0.0000380  -0.0000096   0.0000254   0.2788474
  105   0.0000046  -0.0000068   0.0000298   0.0000094   0.0000733  -0.0074171
  106  -0.0000111  -0.0000953  -0.0000983  -0.0001282  -0.0000217   0.6209019
  107   0.0000072   0.0000583   0.0000539  -0.0000169   0.0000677   3.0328360
            7           8           9
    1  -0.0000251   0.0000350   0.1918552
    2   0.0000762   0.0000242  -0.0817778
    3   0.0312087   0.0854579  -0.0002415
    4   0.0002606   0.0007915   0.0067976
    5  -0.0000413  -0.0000333  -0.2298417
    6  -0.0001741  -0.0000526  -0.0583912
    7  -0.0091087  -0.1015993   0.0000579
    8   0.0000035   0.0000098   0.0302787
    9  -0.0000004  -0.0000420  -0.1034014
   10   0.0756351   0.0047720  -0.0000833
   11   0.0000743  -0.0000383  -0.2226607
   12   0.0000026  -0.0000481   0.1333195
   13   0.0000903   0.0000660   0.0431183
   14   0.0002532   0.0000194  -0.2012453
   15   0.0714187   0.0254813   0.0002424
   16  -0.0000564   0.0000003  -0.3161307
   17  -0.0281834  -0.0186257   0.0003028
   18  -0.0000315   0.0000200   0.1159138
   19   0.0875537   0.0189856  -0.0000904
   20   0.0070519  -0.0063122  -0.0000565
   21  -0.0000142   0.0000492   0.0924148
   22   0.0001236  -0.0000280  -0.0350327
   23   0.0296658  -0.0482530   0.0001143
   24   0.0000458   0.0000353   0.4639700
   25   0.0040432  -0.0722766   0.0000279
   26   0.0000158   0.0004406  -0.0333960
   27   0.0000548   0.0001372   0.0259706
   28   0.0007289   0.0003918   0.1772561
   29   0.3638638   0.2097164  -0.0006990
   30  -0.3057125  -0.0162643  -0.0000456
   31   0.0001190   0.0003127   0.1848026
   32   0.0001893   0.0000239  -0.1272796
   33  -0.0000389   0.0000972   0.1189713
   34   0.0000427  -0.0000027  -0.5404905
   35  -0.1711890  -0.0244684   0.0000603
   36  -0.0007814   0.0001383  -0.0188528
   37   0.2141562  -0.0193809  -0.0001152
   38   0.0000062   0.0000012   0.1556872
   39   0.0000561  -0.0001041  -0.1844143
   40  -0.0621810  -0.0530786  -0.0011384
   41   0.0002590   0.0002728  -0.2561359
   42  -0.0001773   0.0000125   0.4125601
   43   0.0000159   0.0000221  -0.5390489
   44   0.0000461  -0.0000347   0.1276965
   45   0.0399975  -0.0843829   0.0001247
   46   0.0004974   0.0000288  -0.1290822
   47   0.0063218  -0.0345122   0.0000306
   48  -0.2753731  -0.0670040  -0.0000641
   49   0.0003800  -0.0000271   0.0754363
   50   0.0282339   0.0309778  -0.0004959
   51  -0.0000712  -0.0001423   0.1609586
   52   0.0007251  -0.1785001  -0.0005809
   53   0.0000207   0.0002769  -0.2924506
   54  -0.0001526  -0.0000061  -0.0457596
   55  -0.0000599  -0.0000756  -0.2638675
   56  -0.0684115  -0.0027256   0.0000443
   57  -0.0182724   0.0032191  -0.0000752
   58   0.0752974   0.0002331   0.0003726
   59  -0.0001314  -0.0000213   0.2402896
   60  -0.0001939  -0.0000982   0.1872440
   61   0.1366059   0.0233729   0.0001117
   62   0.0000635   0.0000176  -0.1439266
   63  -0.0000123  -0.0000127   0.0501214
   64  -0.1417276  -0.0790140  -0.0001462
   65  -0.0002216   0.0000094  -0.0424754
   66   0.1021602   0.0426273  -0.0002605
   67   0.0000032  -0.0000493   0.0025354
   68  -0.0004883  -0.0001418  -0.1417294
   69  -0.0615279  -0.0130224   0.0009924
   70   0.1841883   0.0637311  -0.0063580
   71   0.0158192   0.0054871   0.0696129
   72   0.0003639   0.0002004   0.1422253
   73   0.0424029   0.0511615  -0.0000838
   74  -0.0002637   0.0003588  -0.4260728
   75   0.0417718  -0.0706198  -0.0022198
   76   0.0002110  -0.0000091   0.0442554
   77  -0.0000348  -0.0000131  -0.1394162
   78   0.1424604  -0.0354397  -0.0000619
   79  -0.0000989   0.0000110   0.0213053
   80  -0.0000780  -0.0001847   0.0106555
   81  -0.0001094  -0.0001044  -0.2504411
   82   0.1112810   0.0757282  -0.0005480
   83   0.0002292   0.0001135   0.1893303
   84  -0.0001333   0.0000425  -0.0965198
   85   0.1027871  -0.1139244   0.0001611
   86  -0.0002503   0.0000234  -0.1418295
   87  -0.1224524  -0.0993336   0.0000157
   88  -0.0009295  -0.0005280  -0.4811667
   89   0.4934403   0.2710257  -0.0011973
   90  -0.0003926   0.0000817   0.3555486
   91  -0.0000430  -0.0002063  -0.3135106
   92  -0.0881933   0.0853740  -0.0001914
   93   0.0000008   0.0000032  -0.1059522
   94  -0.0001191  -0.0000525   0.2051867
   95   0.1502672   0.0511988  -0.0001210
   96   0.0288101  -0.0309596   0.0000671
   97  -0.0001133  -0.0000783  -0.5517719
   98   0.0742111   0.0350521   0.0000307
   99  -0.0982312   0.0017327  -0.0000161
  100  -0.0000805  -0.0000484   0.0503524
  101   0.0000462  -0.0000191  -0.3335004
  102  -0.1791214   0.0531135  -0.0001892
  103  -0.0000501   0.0000122   0.3697041
  104  -0.0000336  -0.0000284   0.3307395
  105  -0.0000338  -0.0000400   0.0201610
  106   0.0001345   0.0000652  -0.3374766
  107   0.0004435  -0.0000082  -1.0636781

 Q-Chem warning in module find_multipole_der.C, line 180:

 Net Molecular Charges From Derivative of Dipole Moment are Inconsistent

 Derivative of Dipole Moment Matrix (a.u.)
            1           2           3
    1   0.8155630  -0.0501599   0.0001187
    2  -0.0352072   0.2721322   0.0000359
    3   0.0000618   0.0000414   0.3875761
    4  -0.0051347  -0.0430941   0.0000279
    5  -0.0909222  -0.1123677   0.0001302
    6   0.0000636   0.0001433   0.0639260
    7  -0.0673482   0.0267192   0.0508387
    8   0.0704856  -0.0090980  -0.0973856
    9   0.0939534  -0.1033161  -0.1311408
   10  -0.0673855   0.0266843  -0.0509152
   11   0.0703746  -0.0088493   0.0972130
   12  -0.0940909   0.1031483  -0.1314163
   13  -0.9346666   0.0499299  -0.0000798
   14   0.0024246  -0.2643956  -0.0000118
   15   0.0000053  -0.0000647  -0.5307278
   16   0.2589869  -0.0101235   0.0000097
   17  -0.0169846   0.1226666   0.0000182
   18   0.0000068   0.0000478   0.3417826
 -----------------------------------------
 Net:   0.00019   0.00004  -0.00000
 -----------------------------------------

ThisX: 2
 Theta
            1           2           3           4           5           6
    1  -0.0000037  -0.0000185  -0.0000397  -0.0000374  -0.0000128  -0.3273612
    2  -0.0000026  -0.0000135  -0.0000333  -0.0000460   0.0000045   0.4289790
    3  -0.0238247  -0.0895558  -0.2440488  -0.2589151  -0.0087117  -0.0011181
    4  -0.0002567  -0.0009673  -0.0026273  -0.0027979  -0.0000516   0.1116274
    5  -0.0000004  -0.0000157  -0.0000070  -0.0000128   0.0000082  -0.2095380
    6   0.0000315   0.0002407   0.0003486   0.0004870  -0.0000546   0.1144505
    7  -0.0271626  -0.2193707  -0.3236559  -0.4388211   0.1950363  -0.0001362
    8  -0.0000048  -0.0000302  -0.0000570  -0.0000752   0.0000257  -0.1211854
    9   0.0000031   0.0000359   0.0000553   0.0000708  -0.0000451   0.1038720
   10  -0.0225118  -0.2557732  -0.2941606  -0.3881576   0.1618575  -0.0001060
   11  -0.0000053  -0.0000553  -0.0000722  -0.0001268   0.0000382   0.2973345
   12  -0.0000106  -0.0000865  -0.0001077  -0.0001647  -0.0000258  -0.5477095
   13   0.0000026  -0.0000036   0.0000201   0.0000153  -0.0000592   0.3317828
   14  -0.0000005  -0.0000650  -0.0000523  -0.0001741   0.0000633   0.8355036
   15  -0.0000868  -0.0234550  -0.0204906  -0.0656602   0.0204819  -0.0010960
   16   0.0000106   0.0000205   0.0000710   0.0000702  -0.0000037  -0.1306090
   17   0.0305878   0.0175496   0.1550694   0.0664174   0.0285927  -0.0005799
   18  -0.0000306   0.0000039  -0.0000944   0.0000365  -0.0000750  -0.3633256
   19   0.0269122   0.0635498   0.2004005   0.1298113  -0.0472258   0.0002998
   20   0.0000637   0.0183485   0.0148099   0.0209493  -0.0174718   0.0000825
   21   0.0000055   0.0001125   0.0001120   0.0001912  -0.0000244  -0.0598702
   22  -0.0000191  -0.0004519  -0.0004205  -0.0007490   0.0000721  -0.2166809
   23   0.0238815   0.3266439   0.3936581   0.5450137  -0.2116259   0.0002597
   24  -0.0000155   0.0000565  -0.0000391   0.0000518  -0.0000839   0.2702376
   25   0.0490480  -0.0945163   0.1807360  -0.0590444   0.2228693  -0.0029670
   26  -0.0002006   0.0004806  -0.0006451   0.0004326  -0.0011081  -0.6803484
   27  -0.0000328   0.0000721  -0.0000864   0.0001271  -0.0002502   0.1383426
   28   0.0000243  -0.0009938  -0.0005772  -0.0016025   0.0004441   0.1821185
   29  -0.0046032  -0.5745344  -0.3929111  -0.8876603   0.1437424  -0.0000891
   30  -0.0266086  -0.6621477  -0.4710741  -0.6394996   0.3137112  -0.0003975
   31   0.0000050   0.0001919   0.0001078   0.0002407  -0.0000526  -0.1055182
   32   0.0000197   0.0000682   0.0000344  -0.0001696   0.0001808  -0.0134671
   33  -0.0000239  -0.0002128  -0.0001425  -0.0000663  -0.0002679  -0.5655279
   34   0.0000019  -0.0000360   0.0000110   0.0000269   0.0000178   0.7755729
   35  -0.0161830  -0.1257993  -0.1403844  -0.0699641   0.0574664  -0.0000012
   36  -0.0001721   0.0005612  -0.0005581   0.0008654  -0.0008258   0.2297166
   37   0.0441951  -0.1287635   0.1539386  -0.1987970   0.1969186   0.0014451
   38  -0.0000167   0.0003407   0.0000517   0.0003025  -0.0001093   0.7268769
   39   0.0000373  -0.0002471   0.0001008  -0.0002141   0.0002250   0.1725485
   40   0.0008135   0.3841029   0.1661823   0.3711390  -0.0893939   0.0005805
   41  -0.0000035  -0.0010370  -0.0004562  -0.0010041   0.0002210   0.1682173
   42   0.0000074   0.0000853   0.0000800   0.0001219  -0.0000204  -1.3040375
   43  -0.0000163  -0.0002967  -0.0002335  -0.0003556   0.0000404  -0.0294418
   44  -0.0000293  -0.0005255  -0.0004164  -0.0006808   0.0000252  -0.0467276
   45   0.0176508   0.7118853   0.5264311   0.9189582  -0.3025387   0.0001608
   46   0.0000517  -0.0004143   0.0000046  -0.0006713  -0.0000246  -0.0978142
   47   0.0077568   0.0225282   0.0480324   0.0182504   0.0129791   0.0001098
   48  -0.0390096  -0.0735188  -0.2228988  -0.0388154   0.0521687  -0.0001930
   49   0.0001040   0.0003463   0.0006399   0.0003811   0.0001695   0.2726667
   50  -0.0016454  -0.0622641  -0.0400397  -0.0584856   0.0300542  -0.0007180
   51   0.0000020  -0.0000024  -0.0000004  -0.0000050   0.0000357   0.0708889
   52   0.0520870   0.4991787   0.4795144   0.5796572  -0.0113629   0.0001134
   53  -0.0001234  -0.0013584  -0.0012068  -0.0016193   0.0000418   0.1467631
   54  -0.0000091  -0.0002023  -0.0001686  -0.0002275   0.0001938   0.1789105
   55   0.0000090  -0.0000178   0.0000370  -0.0000148   0.0000404  -0.1545344
   56  -0.0107896   0.0715527  -0.0130444   0.0907875  -0.0681960  -0.0000390
   57  -0.0034980   0.0131593  -0.0104624   0.0177956  -0.0151591  -0.0000507
   58  -0.0021524   0.5760965   0.2872465   0.6205510  -0.2751862   0.0003253
   59  -0.0000267  -0.0013079  -0.0007660  -0.0013986   0.0004128   0.0729872
   60  -0.0000196   0.0007466   0.0002672   0.0008257  -0.0001227   0.4297192
   61   0.0288851  -0.1246366   0.0638881  -0.1654866   0.0610194   0.0004316
   62  -0.0000223   0.0001745   0.0000019   0.0001567  -0.0002716  -0.2135041
   63   0.0000218   0.0002013   0.0001909   0.0002331   0.0000546   0.0208705
   64  -0.0012645  -0.2882157  -0.1455399  -0.2514127   0.2179327  -0.0002945
   65  -0.0000184   0.0002301   0.0001031   0.0004767  -0.0002051  -0.1246575
   66   0.0048752  -0.0778102  -0.0353945  -0.1460783   0.0498901  -0.0001478
   67   0.0000128   0.0001390   0.0001209   0.0001354   0.0000071  -0.0073944
   68  -0.0000509   0.0005314   0.0002955   0.0010761  -0.0006126   0.0745224
   69  -0.0074172   0.0749766   0.0418474   0.1519415  -0.0927331  -0.0004559
   70   0.0040331  -0.1119230  -0.0454995  -0.1818533  -0.0126042   0.0014359
   71   0.0003282  -0.0097597  -0.0040503  -0.0157547  -0.0011323  -0.0126022
   72   0.0000183   0.0000706   0.0001332   0.0000118  -0.0002259  -0.1523339
   73  -0.0099868  -0.0664022  -0.0812288  -0.0811260  -0.0434799  -0.0000313
   74  -0.0001787  -0.0005212  -0.0010942  -0.0005374  -0.0005735  -0.1506424
   75   0.0330342   0.1262678   0.2178113   0.1300197   0.0944433  -0.0007407
   76   0.0000264  -0.0000650   0.0000790  -0.0001114   0.0000747   0.2571340
   77   0.0000086  -0.0000067   0.0000553   0.0000461   0.0000281   0.1109861
   78   0.0274768  -0.0177009   0.1364288  -0.0106924   0.0592409  -0.0004150
   79  -0.0000131   0.0001392   0.0000235   0.0001688  -0.0000560  -0.1860650
   80  -0.0000010  -0.0000171   0.0000585   0.0000705  -0.0000204   0.0743713
   81  -0.0000198   0.0001232  -0.0000070   0.0001422  -0.0000780  -0.0923643
   82   0.0169908  -0.1367182  -0.1148721  -0.3915865   0.1225867  -0.0002397
   83   0.0000185  -0.0000660  -0.0000451  -0.0003152   0.0000967   0.2103946
   84  -0.0000227   0.0000240  -0.0000284   0.0002583  -0.0001588  -0.0086943
   85   0.0239308   0.4065375   0.2532907   0.2054544   0.0403672  -0.0000154
   86  -0.0000387  -0.0005760  -0.0003586  -0.0002658  -0.0001305  -0.1718644
   87  -0.0028729   0.0048356  -0.0091087   0.0256402   0.0411929  -0.0001752
   88  -0.0000026   0.0011933   0.0004159   0.0014511  -0.0001464   0.8522032
   89   0.0016542  -0.4895760  -0.1706843  -0.6120064   0.0330791   0.0015635
   90   0.0000011   0.0011022   0.0004238   0.0012849  -0.0004757  -0.6868520
   91   0.0000511   0.0010031   0.0006585   0.0009346   0.0000088   0.0698956
   92  -0.0258405  -0.6000774  -0.3645103  -0.5253300   0.1388101   0.0000049
   93  -0.0000019  -0.0002593  -0.0001101  -0.0002309   0.0000671  -0.0896922
   94   0.0000497   0.0015035   0.0007800   0.0014072  -0.0001199   0.2736271
   95   0.0175731   0.8607224   0.4210857   0.7712574  -0.3488329   0.0001830
   96   0.0193243   0.0351379   0.0876184   0.0398171   0.0688363  -0.0003099
   97   0.0000089   0.0002092   0.0001206   0.0002116   0.0000627   0.0397305
   98  -0.0014265   0.0095825   0.0149931   0.0062222  -0.0588256   0.0000771
   99  -0.0154045  -0.0238214  -0.0964077  -0.0173422  -0.0104522   0.0000271
  100  -0.0000037  -0.0000455  -0.0000514  -0.0000522   0.0000554  -0.0542933
  101   0.0000137  -0.0000236   0.0000459  -0.0000289   0.0000743   0.1175719
  102  -0.0427233  -0.0381133  -0.2345343  -0.0282800  -0.1251639  -0.0000919
  103  -0.0000133  -0.0000546  -0.0000955  -0.0000600  -0.0000134  -0.0614452
  104  -0.0000059  -0.0000161  -0.0000380  -0.0000096   0.0000254   0.2788474
  105   0.0000046  -0.0000068   0.0000298   0.0000094   0.0000733  -0.0074171
  106  -0.0000111  -0.0000953  -0.0000983  -0.0001282  -0.0000217   0.6209019
  107   0.0000072   0.0000583   0.0000539  -0.0000169   0.0000677   3.0328360
            7           8           9
    1  -0.0000251   0.0000350   0.1918552
    2   0.0000762   0.0000242  -0.0817778
    3   0.0312087   0.0854579  -0.0002415
    4   0.0002606   0.0007915   0.0067976
    5  -0.0000413  -0.0000333  -0.2298417
    6  -0.0001741  -0.0000526  -0.0583912
    7  -0.0091087  -0.1015993   0.0000579
    8   0.0000035   0.0000098   0.0302787
    9  -0.0000004  -0.0000420  -0.1034014
   10   0.0756351   0.0047720  -0.0000833
   11   0.0000743  -0.0000383  -0.2226607
   12   0.0000026  -0.0000481   0.1333195
   13   0.0000903   0.0000660   0.0431183
   14   0.0002532   0.0000194  -0.2012453
   15   0.0714187   0.0254813   0.0002424
   16  -0.0000564   0.0000003  -0.3161307
   17  -0.0281834  -0.0186257   0.0003028
   18  -0.0000315   0.0000200   0.1159138
   19   0.0875537   0.0189856  -0.0000904
   20   0.0070519  -0.0063122  -0.0000565
   21  -0.0000142   0.0000492   0.0924148
   22   0.0001236  -0.0000280  -0.0350327
   23   0.0296658  -0.0482530   0.0001143
   24   0.0000458   0.0000353   0.4639700
   25   0.0040432  -0.0722766   0.0000279
   26   0.0000158   0.0004406  -0.0333960
   27   0.0000548   0.0001372   0.0259706
   28   0.0007289   0.0003918   0.1772561
   29   0.3638638   0.2097164  -0.0006990
   30  -0.3057125  -0.0162643  -0.0000456
   31   0.0001190   0.0003127   0.1848026
   32   0.0001893   0.0000239  -0.1272796
   33  -0.0000389   0.0000972   0.1189713
   34   0.0000427  -0.0000027  -0.5404905
   35  -0.1711890  -0.0244684   0.0000603
   36  -0.0007814   0.0001383  -0.0188528
   37   0.2141562  -0.0193809  -0.0001152
   38   0.0000062   0.0000012   0.1556872
   39   0.0000561  -0.0001041  -0.1844143
   40  -0.0621810  -0.0530786  -0.0011384
   41   0.0002590   0.0002728  -0.2561359
   42  -0.0001773   0.0000125   0.4125601
   43   0.0000159   0.0000221  -0.5390489
   44   0.0000461  -0.0000347   0.1276965
   45   0.0399975  -0.0843829   0.0001247
   46   0.0004974   0.0000288  -0.1290822
   47   0.0063218  -0.0345122   0.0000306
   48  -0.2753731  -0.0670040  -0.0000641
   49   0.0003800  -0.0000271   0.0754363
   50   0.0282339   0.0309778  -0.0004959
   51  -0.0000712  -0.0001423   0.1609586
   52   0.0007251  -0.1785001  -0.0005809
   53   0.0000207   0.0002769  -0.2924506
   54  -0.0001526  -0.0000061  -0.0457596
   55  -0.0000599  -0.0000756  -0.2638675
   56  -0.0684115  -0.0027256   0.0000443
   57  -0.0182724   0.0032191  -0.0000752
   58   0.0752974   0.0002331   0.0003726
   59  -0.0001314  -0.0000213   0.2402896
   60  -0.0001939  -0.0000982   0.1872440
   61   0.1366059   0.0233729   0.0001117
   62   0.0000635   0.0000176  -0.1439266
   63  -0.0000123  -0.0000127   0.0501214
   64  -0.1417276  -0.0790140  -0.0001462
   65  -0.0002216   0.0000094  -0.0424754
   66   0.1021602   0.0426273  -0.0002605
   67   0.0000032  -0.0000493   0.0025354
   68  -0.0004883  -0.0001418  -0.1417294
   69  -0.0615279  -0.0130224   0.0009924
   70   0.1841883   0.0637311  -0.0063580
   71   0.0158192   0.0054871   0.0696129
   72   0.0003639   0.0002004   0.1422253
   73   0.0424029   0.0511615  -0.0000838
   74  -0.0002637   0.0003588  -0.4260728
   75   0.0417718  -0.0706198  -0.0022198
   76   0.0002110  -0.0000091   0.0442554
   77  -0.0000348  -0.0000131  -0.1394162
   78   0.1424604  -0.0354397  -0.0000619
   79  -0.0000989   0.0000110   0.0213053
   80  -0.0000780  -0.0001847   0.0106555
   81  -0.0001094  -0.0001044  -0.2504411
   82   0.1112810   0.0757282  -0.0005480
   83   0.0002292   0.0001135   0.1893303
   84  -0.0001333   0.0000425  -0.0965198
   85   0.1027871  -0.1139244   0.0001611
   86  -0.0002503   0.0000234  -0.1418295
   87  -0.1224524  -0.0993336   0.0000157
   88  -0.0009295  -0.0005280  -0.4811667
   89   0.4934403   0.2710257  -0.0011973
   90  -0.0003926   0.0000817   0.3555486
   91  -0.0000430  -0.0002063  -0.3135106
   92  -0.0881933   0.0853740  -0.0001914
   93   0.0000008   0.0000032  -0.1059522
   94  -0.0001191  -0.0000525   0.2051867
   95   0.1502672   0.0511988  -0.0001210
   96   0.0288101  -0.0309596   0.0000671
   97  -0.0001133  -0.0000783  -0.5517719
   98   0.0742111   0.0350521   0.0000307
   99  -0.0982312   0.0017327  -0.0000161
  100  -0.0000805  -0.0000484   0.0503524
  101   0.0000462  -0.0000191  -0.3335004
  102  -0.1791214   0.0531135  -0.0001892
  103  -0.0000501   0.0000122   0.3697041
  104  -0.0000336  -0.0000284   0.3307395
  105  -0.0000338  -0.0000400   0.0201610
  106   0.0001345   0.0000652  -0.3374766
  107   0.0004435  -0.0000082  -1.0636781
ThisX: 2
 Theta
            1           2           3           4           5           6
    1  -0.0000037  -0.0000185  -0.0000397  -0.0000374  -0.0000128  -0.3273612
    2  -0.0000026  -0.0000135  -0.0000333  -0.0000460   0.0000045   0.4289790
    3  -0.0238247  -0.0895558  -0.2440488  -0.2589151  -0.0087117  -0.0011181
    4  -0.0002567  -0.0009673  -0.0026273  -0.0027979  -0.0000516   0.1116274
    5  -0.0000004  -0.0000157  -0.0000070  -0.0000128   0.0000082  -0.2095380
    6   0.0000315   0.0002407   0.0003486   0.0004870  -0.0000546   0.1144505
    7  -0.0271626  -0.2193707  -0.3236559  -0.4388211   0.1950363  -0.0001362
    8  -0.0000048  -0.0000302  -0.0000570  -0.0000752   0.0000257  -0.1211854
    9   0.0000031   0.0000359   0.0000553   0.0000708  -0.0000451   0.1038720
   10  -0.0225118  -0.2557732  -0.2941606  -0.3881576   0.1618575  -0.0001060
   11  -0.0000053  -0.0000553  -0.0000722  -0.0001268   0.0000382   0.2973345
   12  -0.0000106  -0.0000865  -0.0001077  -0.0001647  -0.0000258  -0.5477095
   13   0.0000026  -0.0000036   0.0000201   0.0000153  -0.0000592   0.3317828
   14  -0.0000005  -0.0000650  -0.0000523  -0.0001741   0.0000633   0.8355036
   15  -0.0000868  -0.0234550  -0.0204906  -0.0656602   0.0204819  -0.0010960
   16   0.0000106   0.0000205   0.0000710   0.0000702  -0.0000037  -0.1306090
   17   0.0305878   0.0175496   0.1550694   0.0664174   0.0285927  -0.0005799
   18  -0.0000306   0.0000039  -0.0000944   0.0000365  -0.0000750  -0.3633256
   19   0.0269122   0.0635498   0.2004005   0.1298113  -0.0472258   0.0002998
   20   0.0000637   0.0183485   0.0148099   0.0209493  -0.0174718   0.0000825
   21   0.0000055   0.0001125   0.0001120   0.0001912  -0.0000244  -0.0598702
   22  -0.0000191  -0.0004519  -0.0004205  -0.0007490   0.0000721  -0.2166809
   23   0.0238815   0.3266439   0.3936581   0.5450137  -0.2116259   0.0002597
   24  -0.0000155   0.0000565  -0.0000391   0.0000518  -0.0000839   0.2702376
   25   0.0490480  -0.0945163   0.1807360  -0.0590444   0.2228693  -0.0029670
   26  -0.0002006   0.0004806  -0.0006451   0.0004326  -0.0011081  -0.6803484
   27  -0.0000328   0.0000721  -0.0000864   0.0001271  -0.0002502   0.1383426
   28   0.0000243  -0.0009938  -0.0005772  -0.0016025   0.0004441   0.1821185
   29  -0.0046032  -0.5745344  -0.3929111  -0.8876603   0.1437424  -0.0000891
   30  -0.0266086  -0.6621477  -0.4710741  -0.6394996   0.3137112  -0.0003975
   31   0.0000050   0.0001919   0.0001078   0.0002407  -0.0000526  -0.1055182
   32   0.0000197   0.0000682   0.0000344  -0.0001696   0.0001808  -0.0134671
   33  -0.0000239  -0.0002128  -0.0001425  -0.0000663  -0.0002679  -0.5655279
   34   0.0000019  -0.0000360   0.0000110   0.0000269   0.0000178   0.7755729
   35  -0.0161830  -0.1257993  -0.1403844  -0.0699641   0.0574664  -0.0000012
   36  -0.0001721   0.0005612  -0.0005581   0.0008654  -0.0008258   0.2297166
   37   0.0441951  -0.1287635   0.1539386  -0.1987970   0.1969186   0.0014451
   38  -0.0000167   0.0003407   0.0000517   0.0003025  -0.0001093   0.7268769
   39   0.0000373  -0.0002471   0.0001008  -0.0002141   0.0002250   0.1725485
   40   0.0008135   0.3841029   0.1661823   0.3711390  -0.0893939   0.0005805
   41  -0.0000035  -0.0010370  -0.0004562  -0.0010041   0.0002210   0.1682173
   42   0.0000074   0.0000853   0.0000800   0.0001219  -0.0000204  -1.3040375
   43  -0.0000163  -0.0002967  -0.0002335  -0.0003556   0.0000404  -0.0294418
   44  -0.0000293  -0.0005255  -0.0004164  -0.0006808   0.0000252  -0.0467276
   45   0.0176508   0.7118853   0.5264311   0.9189582  -0.3025387   0.0001608
   46   0.0000517  -0.0004143   0.0000046  -0.0006713  -0.0000246  -0.0978142
   47   0.0077568   0.0225282   0.0480324   0.0182504   0.0129791   0.0001098
   48  -0.0390096  -0.0735188  -0.2228988  -0.0388154   0.0521687  -0.0001930
   49   0.0001040   0.0003463   0.0006399   0.0003811   0.0001695   0.2726667
   50  -0.0016454  -0.0622641  -0.0400397  -0.0584856   0.0300542  -0.0007180
   51   0.0000020  -0.0000024  -0.0000004  -0.0000050   0.0000357   0.0708889
   52   0.0520870   0.4991787   0.4795144   0.5796572  -0.0113629   0.0001134
   53  -0.0001234  -0.0013584  -0.0012068  -0.0016193   0.0000418   0.1467631
   54  -0.0000091  -0.0002023  -0.0001686  -0.0002275   0.0001938   0.1789105
   55   0.0000090  -0.0000178   0.0000370  -0.0000148   0.0000404  -0.1545344
   56  -0.0107896   0.0715527  -0.0130444   0.0907875  -0.0681960  -0.0000390
   57  -0.0034980   0.0131593  -0.0104624   0.0177956  -0.0151591  -0.0000507
   58  -0.0021524   0.5760965   0.2872465   0.6205510  -0.2751862   0.0003253
   59  -0.0000267  -0.0013079  -0.0007660  -0.0013986   0.0004128   0.0729872
   60  -0.0000196   0.0007466   0.0002672   0.0008257  -0.0001227   0.4297192
   61   0.0288851  -0.1246366   0.0638881  -0.1654866   0.0610194   0.0004316
   62  -0.0000223   0.0001745   0.0000019   0.0001567  -0.0002716  -0.2135041
   63   0.0000218   0.0002013   0.0001909   0.0002331   0.0000546   0.0208705
   64  -0.0012645  -0.2882157  -0.1455399  -0.2514127   0.2179327  -0.0002945
   65  -0.0000184   0.0002301   0.0001031   0.0004767  -0.0002051  -0.1246575
   66   0.0048752  -0.0778102  -0.0353945  -0.1460783   0.0498901  -0.0001478
   67   0.0000128   0.0001390   0.0001209   0.0001354   0.0000071  -0.0073944
   68  -0.0000509   0.0005314   0.0002955   0.0010761  -0.0006126   0.0745224
   69  -0.0074172   0.0749766   0.0418474   0.1519415  -0.0927331  -0.0004559
   70   0.0040331  -0.1119230  -0.0454995  -0.1818533  -0.0126042   0.0014359
   71   0.0003282  -0.0097597  -0.0040503  -0.0157547  -0.0011323  -0.0126022
   72   0.0000183   0.0000706   0.0001332   0.0000118  -0.0002259  -0.1523339
   73  -0.0099868  -0.0664022  -0.0812288  -0.0811260  -0.0434799  -0.0000313
   74  -0.0001787  -0.0005212  -0.0010942  -0.0005374  -0.0005735  -0.1506424
   75   0.0330342   0.1262678   0.2178113   0.1300197   0.0944433  -0.0007407
   76   0.0000264  -0.0000650   0.0000790  -0.0001114   0.0000747   0.2571340
   77   0.0000086  -0.0000067   0.0000553   0.0000461   0.0000281   0.1109861
   78   0.0274768  -0.0177009   0.1364288  -0.0106924   0.0592409  -0.0004150
   79  -0.0000131   0.0001392   0.0000235   0.0001688  -0.0000560  -0.1860650
   80  -0.0000010  -0.0000171   0.0000585   0.0000705  -0.0000204   0.0743713
   81  -0.0000198   0.0001232  -0.0000070   0.0001422  -0.0000780  -0.0923643
   82   0.0169908  -0.1367182  -0.1148721  -0.3915865   0.1225867  -0.0002397
   83   0.0000185  -0.0000660  -0.0000451  -0.0003152   0.0000967   0.2103946
   84  -0.0000227   0.0000240  -0.0000284   0.0002583  -0.0001588  -0.0086943
   85   0.0239308   0.4065375   0.2532907   0.2054544   0.0403672  -0.0000154
   86  -0.0000387  -0.0005760  -0.0003586  -0.0002658  -0.0001305  -0.1718644
   87  -0.0028729   0.0048356  -0.0091087   0.0256402   0.0411929  -0.0001752
   88  -0.0000026   0.0011933   0.0004159   0.0014511  -0.0001464   0.8522032
   89   0.0016542  -0.4895760  -0.1706843  -0.6120064   0.0330791   0.0015635
   90   0.0000011   0.0011022   0.0004238   0.0012849  -0.0004757  -0.6868520
   91   0.0000511   0.0010031   0.0006585   0.0009346   0.0000088   0.0698956
   92  -0.0258405  -0.6000774  -0.3645103  -0.5253300   0.1388101   0.0000049
   93  -0.0000019  -0.0002593  -0.0001101  -0.0002309   0.0000671  -0.0896922
   94   0.0000497   0.0015035   0.0007800   0.0014072  -0.0001199   0.2736271
   95   0.0175731   0.8607224   0.4210857   0.7712574  -0.3488329   0.0001830
   96   0.0193243   0.0351379   0.0876184   0.0398171   0.0688363  -0.0003099
   97   0.0000089   0.0002092   0.0001206   0.0002116   0.0000627   0.0397305
   98  -0.0014265   0.0095825   0.0149931   0.0062222  -0.0588256   0.0000771
   99  -0.0154045  -0.0238214  -0.0964077  -0.0173422  -0.0104522   0.0000271
  100  -0.0000037  -0.0000455  -0.0000514  -0.0000522   0.0000554  -0.0542933
  101   0.0000137  -0.0000236   0.0000459  -0.0000289   0.0000743   0.1175719
  102  -0.0427233  -0.0381133  -0.2345343  -0.0282800  -0.1251639  -0.0000919
  103  -0.0000133  -0.0000546  -0.0000955  -0.0000600  -0.0000134  -0.0614452
  104  -0.0000059  -0.0000161  -0.0000380  -0.0000096   0.0000254   0.2788474
  105   0.0000046  -0.0000068   0.0000298   0.0000094   0.0000733  -0.0074171
  106  -0.0000111  -0.0000953  -0.0000983  -0.0001282  -0.0000217   0.6209019
  107   0.0000072   0.0000583   0.0000539  -0.0000169   0.0000677   3.0328360
            7           8           9
    1  -0.0000251   0.0000350   0.1918552
    2   0.0000762   0.0000242  -0.0817778
    3   0.0312087   0.0854579  -0.0002415
    4   0.0002606   0.0007915   0.0067976
    5  -0.0000413  -0.0000333  -0.2298417
    6  -0.0001741  -0.0000526  -0.0583912
    7  -0.0091087  -0.1015993   0.0000579
    8   0.0000035   0.0000098   0.0302787
    9  -0.0000004  -0.0000420  -0.1034014
   10   0.0756351   0.0047720  -0.0000833
   11   0.0000743  -0.0000383  -0.2226607
   12   0.0000026  -0.0000481   0.1333195
   13   0.0000903   0.0000660   0.0431183
   14   0.0002532   0.0000194  -0.2012453
   15   0.0714187   0.0254813   0.0002424
   16  -0.0000564   0.0000003  -0.3161307
   17  -0.0281834  -0.0186257   0.0003028
   18  -0.0000315   0.0000200   0.1159138
   19   0.0875537   0.0189856  -0.0000904
   20   0.0070519  -0.0063122  -0.0000565
   21  -0.0000142   0.0000492   0.0924148
   22   0.0001236  -0.0000280  -0.0350327
   23   0.0296658  -0.0482530   0.0001143
   24   0.0000458   0.0000353   0.4639700
   25   0.0040432  -0.0722766   0.0000279
   26   0.0000158   0.0004406  -0.0333960
   27   0.0000548   0.0001372   0.0259706
   28   0.0007289   0.0003918   0.1772561
   29   0.3638638   0.2097164  -0.0006990
   30  -0.3057125  -0.0162643  -0.0000456
   31   0.0001190   0.0003127   0.1848026
   32   0.0001893   0.0000239  -0.1272796
   33  -0.0000389   0.0000972   0.1189713
   34   0.0000427  -0.0000027  -0.5404905
   35  -0.1711890  -0.0244684   0.0000603
   36  -0.0007814   0.0001383  -0.0188528
   37   0.2141562  -0.0193809  -0.0001152
   38   0.0000062   0.0000012   0.1556872
   39   0.0000561  -0.0001041  -0.1844143
   40  -0.0621810  -0.0530786  -0.0011384
   41   0.0002590   0.0002728  -0.2561359
   42  -0.0001773   0.0000125   0.4125601
   43   0.0000159   0.0000221  -0.5390489
   44   0.0000461  -0.0000347   0.1276965
   45   0.0399975  -0.0843829   0.0001247
   46   0.0004974   0.0000288  -0.1290822
   47   0.0063218  -0.0345122   0.0000306
   48  -0.2753731  -0.0670040  -0.0000641
   49   0.0003800  -0.0000271   0.0754363
   50   0.0282339   0.0309778  -0.0004959
   51  -0.0000712  -0.0001423   0.1609586
   52   0.0007251  -0.1785001  -0.0005809
   53   0.0000207   0.0002769  -0.2924506
   54  -0.0001526  -0.0000061  -0.0457596
   55  -0.0000599  -0.0000756  -0.2638675
   56  -0.0684115  -0.0027256   0.0000443
   57  -0.0182724   0.0032191  -0.0000752
   58   0.0752974   0.0002331   0.0003726
   59  -0.0001314  -0.0000213   0.2402896
   60  -0.0001939  -0.0000982   0.1872440
   61   0.1366059   0.0233729   0.0001117
   62   0.0000635   0.0000176  -0.1439266
   63  -0.0000123  -0.0000127   0.0501214
   64  -0.1417276  -0.0790140  -0.0001462
   65  -0.0002216   0.0000094  -0.0424754
   66   0.1021602   0.0426273  -0.0002605
   67   0.0000032  -0.0000493   0.0025354
   68  -0.0004883  -0.0001418  -0.1417294
   69  -0.0615279  -0.0130224   0.0009924
   70   0.1841883   0.0637311  -0.0063580
   71   0.0158192   0.0054871   0.0696129
   72   0.0003639   0.0002004   0.1422253
   73   0.0424029   0.0511615  -0.0000838
   74  -0.0002637   0.0003588  -0.4260728
   75   0.0417718  -0.0706198  -0.0022198
   76   0.0002110  -0.0000091   0.0442554
   77  -0.0000348  -0.0000131  -0.1394162
   78   0.1424604  -0.0354397  -0.0000619
   79  -0.0000989   0.0000110   0.0213053
   80  -0.0000780  -0.0001847   0.0106555
   81  -0.0001094  -0.0001044  -0.2504411
   82   0.1112810   0.0757282  -0.0005480
   83   0.0002292   0.0001135   0.1893303
   84  -0.0001333   0.0000425  -0.0965198
   85   0.1027871  -0.1139244   0.0001611
   86  -0.0002503   0.0000234  -0.1418295
   87  -0.1224524  -0.0993336   0.0000157
   88  -0.0009295  -0.0005280  -0.4811667
   89   0.4934403   0.2710257  -0.0011973
   90  -0.0003926   0.0000817   0.3555486
   91  -0.0000430  -0.0002063  -0.3135106
   92  -0.0881933   0.0853740  -0.0001914
   93   0.0000008   0.0000032  -0.1059522
   94  -0.0001191  -0.0000525   0.2051867
   95   0.1502672   0.0511988  -0.0001210
   96   0.0288101  -0.0309596   0.0000671
   97  -0.0001133  -0.0000783  -0.5517719
   98   0.0742111   0.0350521   0.0000307
   99  -0.0982312   0.0017327  -0.0000161
  100  -0.0000805  -0.0000484   0.0503524
  101   0.0000462  -0.0000191  -0.3335004
  102  -0.1791214   0.0531135  -0.0001892
  103  -0.0000501   0.0000122   0.3697041
  104  -0.0000336  -0.0000284   0.3307395
  105  -0.0000338  -0.0000400   0.0201610
  106   0.0001345   0.0000652  -0.3374766
  107   0.0004435  -0.0000082  -1.0636781
 
 Direct stationary perturbation theory relativistic correction:
 
 rels  =       0.038579326014
 relv  =      -0.153489672309
 rel2e =       0.049962390569
 E_rel =      -0.064947955726
 
 Hessian of the SCF Energy
            1           2           3           4           5           6
    1   0.4591905   0.0237732  -0.0000058  -0.0758653  -0.0895088   0.0000651
    2   0.0237732   0.5921333  -0.0000077  -0.0768606  -0.2817243   0.0001693
    3  -0.0000058  -0.0000077   0.5483693   0.0000587   0.0001676  -0.0509492
    4  -0.0758653  -0.0768606   0.0000587   0.0992609   0.0963601  -0.0000683
    5  -0.0895088  -0.2817243   0.0001676   0.0963601   0.2957710  -0.0001830
    6   0.0000651   0.0001693  -0.0509492  -0.0000683  -0.0001830   0.0462462
    7  -0.0662092   0.0288122   0.0522983   0.0053444  -0.0040706  -0.0093862
    8   0.0321101  -0.1097820  -0.0953772   0.0079555  -0.0122813  -0.0253411
    9   0.0546666  -0.0965097  -0.2179764  -0.0010547   0.0008412   0.0011834
   10  -0.0662145   0.0287521  -0.0523562   0.0053465  -0.0040586   0.0093904
   11   0.0320404  -0.1095140   0.0952168   0.0079589  -0.0122502   0.0253606
   12  -0.0547222   0.0963472  -0.2182198   0.0010420  -0.0008204   0.0011465
   13  -0.2261143   0.0385942   0.0000012  -0.0267383  -0.0011386   0.0000008
   14  -0.0085435  -0.0942482   0.0000008  -0.0360795   0.0079566  -0.0000049
   15  -0.0000074  -0.0000028  -0.0607521   0.0000165  -0.0000064   0.0021493
   16  -0.0247752  -0.0430703   0.0000038  -0.0073544   0.0024272  -0.0000017
   17   0.0101161   0.0031033  -0.0000002   0.0006689   0.0025498  -0.0000010
   18   0.0000037   0.0000038  -0.0004688   0.0000059   0.0000009   0.0002215
            7           8           9          10          11          12
    1  -0.0662092   0.0321101   0.0546666  -0.0662145   0.0320404  -0.0547222
    2   0.0288122  -0.1097820  -0.0965097   0.0287521  -0.1095140   0.0963472
    3   0.0522983  -0.0953772  -0.2179764  -0.0523562   0.0952168  -0.2182198
    4   0.0053444   0.0079555  -0.0010547   0.0053465   0.0079589   0.0010420
    5  -0.0040706  -0.0122813   0.0008412  -0.0040586  -0.0122502  -0.0008204
    6  -0.0093862  -0.0253411   0.0011834   0.0093904   0.0253606   0.0011465
    7   0.0836914  -0.0405355  -0.0652770   0.0055868  -0.0045736  -0.0058872
    8  -0.0405355   0.1095559   0.1066071  -0.0045636   0.0087455   0.0136256
    9  -0.0652770   0.1066071   0.2287882   0.0058908  -0.0136669  -0.0208807
   10   0.0055868  -0.0045636   0.0058908   0.0837068  -0.0404565   0.0653476
   11  -0.0045736   0.0087455  -0.0136669  -0.0404565   0.1092583  -0.1064302
   12  -0.0058872   0.0136256  -0.0208807   0.0653476  -0.1064302   0.2290582
   13  -0.0301864   0.0051255   0.0048645  -0.0301925   0.0051250  -0.0048714
   14   0.0188807   0.0032800   0.0027337   0.0188408   0.0032825  -0.0027286
   15   0.0280148  -0.0007971   0.0086240  -0.0280327   0.0008020   0.0086360
   16   0.0017829  -0.0000985   0.0009019   0.0017768  -0.0001008  -0.0009010
   17   0.0014825   0.0004918   0.0000136   0.0014814   0.0004878  -0.0000126
   18   0.0002319   0.0012892   0.0002659  -0.0002345  -0.0012887   0.0002642
           13          14          15          16          17          18
    1  -0.2261143  -0.0085435  -0.0000074  -0.0247752   0.0101161   0.0000037
    2   0.0385942  -0.0942482  -0.0000028  -0.0430703   0.0031033   0.0000038
    3   0.0000012   0.0000008  -0.0607521   0.0000038  -0.0000002  -0.0004688
    4  -0.0267383  -0.0360795   0.0000165  -0.0073544   0.0006689   0.0000059
    5  -0.0011386   0.0079566  -0.0000064   0.0024272   0.0025498   0.0000009
    6   0.0000008  -0.0000049   0.0021493  -0.0000017  -0.0000010   0.0002215
    7  -0.0301864   0.0188807   0.0280148   0.0017829   0.0014825   0.0002319
    8   0.0051255   0.0032800  -0.0007971  -0.0000985   0.0004918   0.0012892
    9   0.0048645   0.0027337   0.0086240   0.0009019   0.0000136   0.0002659
   10  -0.0301925   0.0188408  -0.0280327   0.0017768   0.0014814  -0.0002345
   11   0.0051250   0.0032825   0.0008020  -0.0001008   0.0004878  -0.0012887
   12  -0.0048714  -0.0027286   0.0086360  -0.0009010  -0.0000126   0.0002642
   13   0.4222835   0.1468707   0.0000081  -0.1090547  -0.1945656  -0.0000032
   14   0.1468707   0.5315510   0.0000012  -0.1399679  -0.4518225  -0.0000023
   15   0.0000081   0.0000012   0.0444429   0.0000008   0.0000032  -0.0031098
   16  -0.1090547  -0.1399679   0.0000008   0.1376017   0.1808169  -0.0000037
   17  -0.1945656  -0.4518225   0.0000032   0.1808169   0.4451808  -0.0000030
   18  -0.0000032  -0.0000023  -0.0031098  -0.0000037  -0.0000030   0.0028270
 Gradient time:  CPU 243.41 s  wall 254.70 s
 ------------------------------------------------------------------------------
                     drvman        : Timing summary (seconds)
 ------------------------------------------------------------------------------
     job step          cpu (% of tot)      sys (% of tot)     wall (% of tot)
 ------------------------------------------------------------------------------
  cpscf_lag         0.4791E+02 (19.7)   0.1560E-03 (14.5)   0.4795E+02 (18.8)
  iterzp 1          0.6264E+02 (25.7)   0.7440E-03 (69.0)   0.6439E+02 (25.3)
  SetFozP           0.6261E+02 (25.7)   0.7430E-03 (68.9)   0.6269E+02 (24.6)
  SetFoz Aoints     0.2583E+02 (10.6)   0.6000E-05 ( 0.6)   0.2591E+02 (10.2)
  SetFoz dft        0.3669E+02 (15.1)   0.7370E-03 (68.3)   0.3669E+02 (14.4)
  build vec rep     0.1300E-01 ( 0.0)   0.0000E+00 ( 0.0)   0.1298E-01 ( 0.0)
  SSmatP            0.8999E-02 ( 0.0)   0.0000E+00 ( 0.0)   0.9256E-02 ( 0.0)
  FileManP          0.1000E-02 ( 0.0)   0.0000E+00 ( 0.0)   0.5951E-03 ( 0.0)
  SSVecP            0.2998E-02 ( 0.0)   0.0000E+00 ( 0.0)   0.3053E-02 ( 0.0)
  check converge    0.1200E-01 ( 0.0)   0.1000E-05 ( 0.1)   0.1243E-01 ( 0.0)
  AXeqB0            0.0000E+00 ( 0.0)   0.0000E+00 ( 0.0)   0.1822E-03 ( 0.0)
  CPConvP           0.1200E-01 ( 0.0)   0.1000E-05 ( 0.1)   0.1218E-01 ( 0.0)
  expand subspac    0.1000E-02 ( 0.0)   0.0000E+00 ( 0.0)   0.1202E-03 ( 0.0)
  iterzp 2          0.0000E+00 ( 0.0)   0.0000E+00 ( 0.0)   0.2861E-05 ( 0.0)
  make_fx           0.1122E+02 ( 4.6)   0.1380E-03 (12.8)   0.1124E+02 ( 4.4)
  makefx_aoints     0.4480E+01 ( 1.8)   0.1000E-05 ( 0.1)   0.4488E+01 ( 1.8)
  scf_hess          0.1216E+03 (50.0)   0.4100E-04 ( 3.8)   0.1311E+03 (51.5)
 ------------------------------------------------------------------------------
   Grand Totals     0.2434E+03          0.1079E-02          0.2547E+03
 ------------------------------------------------------------------------------
 **********************************************************************
 **                                                                  **
 **                       VIBRATIONAL ANALYSIS                       **
 **                       --------------------                       **
 **                                                                  **
 **        VIBRATIONAL FREQUENCIES (CM**-1) AND NORMAL MODES         **
 **     FORCE CONSTANTS (mDYN/ANGSTROM) AND REDUCED MASSES (AMU)     **
 **                  INFRARED INTENSITIES (KM/MOL)                   **
 **                                                                  **
 **********************************************************************
 

 Mode:                 1                      2                      3
 Frequency:       310.49                1036.95                1073.67
 Force Cnst:      0.0607                 1.7885                 0.9717
 Red. Mass:       1.0692                 2.8230                 1.4307
 IR Active:          YES                    YES                    YES
 IR Intens:      110.165                119.446                  0.348
 Raman Active:       YES                    YES                    YES
               X      Y      Z        X      Y      Z        X      Y      Z
 C          0.000  0.000  0.003   -0.266 -0.038  0.000   -0.140  0.086  0.000
 H          0.000  0.000  0.295   -0.652  0.136  0.000    0.431 -0.151  0.000
 H          0.063  0.219 -0.103    0.083  0.200 -0.021   -0.391 -0.179  0.044
 H         -0.063 -0.219 -0.103    0.082  0.200  0.021   -0.390 -0.179 -0.044
 O          0.000  0.000 -0.064    0.260 -0.025  0.000    0.091 -0.018  0.000
 H          0.000  0.000  0.885   -0.472  0.315  0.000    0.575 -0.229  0.000
 TransDip   0.000  0.000  0.336   -0.346  0.050  0.000   -0.001 -0.019  0.000

 Mode:                 4                      5                      6
 Frequency:      1164.36                1370.20                1472.64
 Force Cnst:      1.0109                 1.4180                 1.4496
 Red. Mass:       1.2656                 1.2819                 1.1345
 IR Active:          YES                    YES                    YES
 IR Intens:        0.693                 26.541                  3.675
 Raman Active:       YES                    YES                    YES
               X      Y      Z        X      Y      Z        X      Y      Z
 C          0.000  0.000  0.135   -0.032 -0.120  0.000   -0.105 -0.012  0.000
 H          0.000  0.000 -0.261   -0.427  0.038  0.000    0.601 -0.288 -0.001
 H         -0.638  0.116 -0.186    0.152  0.185 -0.108    0.464  0.228  0.071
 H          0.638 -0.116 -0.186    0.152  0.186  0.108    0.464  0.227 -0.072
 O          0.000  0.000 -0.062   -0.016  0.082  0.000   -0.017 -0.001  0.000
 H          0.000  0.000  0.001    0.761 -0.277  0.000   -0.006 -0.008  0.000
 TransDip   0.000  0.000  0.027    0.158 -0.048  0.000   -0.060  0.012  0.000

 Mode:                 7                      8                      9
 Frequency:      1483.45                1502.02                2957.62
 Force Cnst:      1.3611                 1.3927                 5.3395
 Red. Mass:       1.0498                 1.0477                 1.0360
 IR Active:          YES                    YES                    YES
 IR Intens:        2.045                  3.974                 62.946
 Raman Active:       YES                    YES                    YES
               X      Y      Z        X      Y      Z        X      Y      Z
 C          0.000  0.000 -0.061    0.032 -0.046  0.000   -0.040  0.031  0.000
 H          0.001  0.000  0.729    0.227 -0.106  0.000    0.106  0.267  0.000
 H         -0.305 -0.367  0.066   -0.304  0.454 -0.403    0.207 -0.318 -0.559
 H          0.307  0.367  0.065   -0.303  0.455  0.402    0.208 -0.318  0.560
 O          0.000  0.000 -0.008    0.007 -0.019  0.000   -0.003  0.000  0.000
 H          0.000  0.000 -0.009   -0.105  0.034  0.000   -0.005 -0.003  0.000
 TransDip   0.000  0.000  0.046    0.031  0.056  0.000   -0.231  0.106  0.000

 Mode:                10                     11                     12
 Frequency:      3008.97                3085.87                3836.53
 Force Cnst:      5.9008                 6.1634                 9.2498
 Red. Mass:       1.1062                 1.0985                 1.0666
 IR Active:          YES                    YES                    YES
 IR Intens:       67.841                 30.368                 25.050
 Raman Active:       YES                    YES                    YES
               X      Y      Z        X      Y      Z        X      Y      Z
 C          0.000  0.000 -0.095   -0.020 -0.088  0.000    0.001 -0.002  0.000
 H          0.000  0.000 -0.026    0.358  0.891 -0.001    0.004  0.015  0.000
 H         -0.217  0.352  0.570   -0.058  0.076  0.161    0.004  0.000  0.001
 H          0.217 -0.351  0.570   -0.058  0.075 -0.161    0.004  0.000 -0.001
 O          0.000  0.000  0.001    0.000  0.002  0.000   -0.027 -0.056  0.000
 H          0.000  0.000  0.004    0.002 -0.018  0.000    0.413  0.908  0.000
 TransDip   0.000  0.000 -0.264   -0.045 -0.171  0.000    0.112  0.115  0.000

 STANDARD THERMODYNAMIC QUANTITIES AT   298.18 K  AND     1.00 ATM

   This Molecule has  0 Imaginary Frequencies
   Zero point vibrational energy:       31.883 kcal/mol

   Atom    1 Element C  Has Mass   12.00000
   Atom    2 Element H  Has Mass    1.00783
   Atom    3 Element H  Has Mass    1.00783
   Atom    4 Element H  Has Mass    1.00783
   Atom    5 Element O  Has Mass   15.99491
   Atom    6 Element H  Has Mass    1.00783
   Molecular Mass:    32.026230 amu
   Principal axes and moments of inertia in atomic units:
                           1         2         3
    Eigenvalues --     14.07685  72.93720  75.57994
          X             0.99896   0.04553   0.00000
          Y            -0.04553   0.99896   0.00000
          Z             0.00000   0.00000   1.00000
   Rotational Symmetry Number is   1
   The Molecule is an Asymmetric Top
   Translational Enthalpy:        0.889 kcal/mol
   Rotational Enthalpy:           0.889 kcal/mol
   Vibrational Enthalpy:         32.204 kcal/mol
   gas constant (RT):             0.593 kcal/mol
   Translational Entropy:        36.324  cal/mol.K
   Rotational Entropy:           18.990  cal/mol.K
   Vibrational Entropy:           1.616  cal/mol.K

   Total Enthalpy:               34.574 kcal/mol
   Total Entropy:                56.930  cal/mol.K
Archival summary:
1\1\o59.lobos.nih.gov\FREQ\ProcedureUnspecified\BasisUnspecified\O1C1H4\an\30Jun2009\0\\#,FREQ,ProcedureUnspecified,BasisUnspecified,\\0,1\O\H,1,0.960327\C,1,1.42144,2,108.139\H,3,1.08992,1,106.904,2,-179.96,0\H,3,1.09657,1,112.212,2,-61.3465,0\H,3,1.09657,1,112.211,2,61.4255,0\\\@

 Total job time:  266.32s(wall), 254.36s(cpu) 
 Tue Jun 30 15:58:05 2009

        *************************************************************
        *                                                           *
        *  Thank you very much for using Q-Chem.  Have a nice day.  *
        *                                                           *
        *************************************************************


