Who cares about the title?                                              
Freq      RHF                                                         3-21G               
Number of atoms                            I                8
Charge                                     I                0
Multiplicity                               I                1
Number of electrons                        I               18
Number of alpha electrons                  I                9
Number of beta electrons                   I                9
Number of basis functions                  I               30
Number of independant functions            I               30
Number of point charges in /Mol/           I                0
Number of translation vectors              I                0
Info1-9                                    I   N=           9
          18          17        1002           0           0         100
           6           1           1
Num ILSW                                   I              100
ILSW                                       I   N=         100
           0           1           0           0           2           0
           0           0           0           0           0     1000000
           0           0           0           0           0           0
           0     1000000           1           0           1           0
           1           1           0           0     1000000           0
           0           0      100000           0          -1           0
           0           0           0           0           0           0
           0           0           0           1           0           0
           0           0           1     1000000     1000000           0
           0           0           0           0           0           0
           0           0           0           0           0           0
           0           0           0           0           0           0
           0           0           0           0           0           0
           0           0           0           0           0           0
           0           0           0           0           0           0
           0           0           0           0           0           0
           0           0           0           0
Number of contracted shells                I               18
Highest angular momentum                   I                1
Largest degree of contraction              I                3
Number of primitive shells                 I               30
Pure/Cartesian d shells                    I                1
Pure/Cartesian f shells                    I                0
Virial Ratio                               R      2.001904359602512E+00
SCF Energy                                 R     -7.879394790684231E+01
Total Energy                               R     -7.879394790684231E+01
RMS Force                                  R      8.672554148755049E-05
RMS Density                                R      4.517212949228790E-10
Atomic numbers                             I   N=           8
           6           6           1           1           1           1
           1           1
Nuclear charges                            R   N=           8
  6.00000000E+00  6.00000000E+00  1.00000000E+00  1.00000000E+00  1.00000000E+00
  1.00000000E+00  1.00000000E+00  1.00000000E+00
Current cartesian coordinates              R   N=          24
  2.83458923E+01  2.83458920E+01  2.68888084E+01  2.83458917E+01  2.83458920E+01
  2.98029756E+01  3.02611807E+01  2.83458920E+01  2.61609560E+01  2.64306033E+01
  2.83458920E+01  3.05308281E+01  2.93035358E+01  2.66872037E+01  3.05308286E+01
  2.93035358E+01  3.00045803E+01  3.05308286E+01  2.73882483E+01  2.66872037E+01
  2.61609554E+01  2.73882483E+01  3.00045803E+01  2.61609554E+01
Int Atom Types                             I   N=           8
           0           0           0           0           0           0
           0           0
Force Field                                I                0
MM charges                                 R   N=           8
  0.00000000E+00  0.00000000E+00  0.00000000E+00  0.00000000E+00  0.00000000E+00
  0.00000000E+00  0.00000000E+00  0.00000000E+00
Integer atomic weights                     I   N=           8
          12          12           1           1           1           1
           1           1
Real atomic weights                        R   N=           8
  1.20000000E+01  1.20000000E+01  1.00782504E+00  1.00782504E+00  1.00782504E+00
  1.00782504E+00  1.00782504E+00  1.00782504E+00
Atom residue info                          I   N=           8
           0           0           0           0           0           0
           0           0
Atom fragment info                         I   N=           8
           0           0           0           0           0           0
           0           0
Atom residue num                           I   N=           8
           0           0           0           0           0           0
           0           0
Nuclear spins                              I   N=           8
           0           0           1           1           1           1
           1           1
Nuclear ZEff                               R   N=           8
 -3.60000000E+00 -3.60000000E+00 -1.00000000E+00 -1.00000000E+00 -1.00000000E+00
 -1.00000000E+00 -1.00000000E+00 -1.00000000E+00
Nuclear QMom                               R   N=           8
  0.00000000E+00  0.00000000E+00  0.00000000E+00  0.00000000E+00  0.00000000E+00
  0.00000000E+00  0.00000000E+00  0.00000000E+00
Nuclear GFac                               R   N=           8
  0.00000000E+00  0.00000000E+00  2.79284600E+00  2.79284600E+00  2.79284600E+00
  2.79284600E+00  2.79284600E+00  2.79284600E+00
MicOpt                                     I   N=           8
          -1          -1          -1          -1          -1          -1
          -1          -1
Constraint Structure                       R   N=          24
  2.83458923E+01  2.83458920E+01  2.68888084E+01  2.83458917E+01  2.83458920E+01
  2.98029756E+01  3.02611807E+01  2.83458920E+01  2.61609560E+01  2.64306033E+01
  2.83458920E+01  3.05308281E+01  2.93035358E+01  2.66872037E+01  3.05308286E+01
  2.93035358E+01  3.00045803E+01  3.05308286E+01  2.73882483E+01  2.66872037E+01
  2.61609554E+01  2.73882483E+01  3.00045803E+01  2.61609554E+01
ONIOM Charges                              I   N=          16
           0           0           0           0           0           0
           0           0           0           0           0           0
           0           0           0           0
ONIOM Multiplicities                       I   N=          16
           1           0           0           0           0           0
           0           0           0           0           0           0
           0           0           0           0
Atom Layers                                I   N=           8
           0           0           0           0           0           0
           0           0
Atom Modifiers                             I   N=           8
           0           0           0           0           0           0
           0           0
Int Atom Modified Types                    I   N=           8
           0           0           0           0           0           0
           0           0
Link Atoms                                 I   N=           8
           0           0           0           0           0           0
           0           0
Atom Modified MM Charges                   R   N=           8
  0.00000000E+00  0.00000000E+00  0.00000000E+00  0.00000000E+00  0.00000000E+00
  0.00000000E+00  0.00000000E+00  0.00000000E+00
Link Distances                             R   N=          32
  0.00000000E+00  0.00000000E+00  0.00000000E+00  0.00000000E+00  0.00000000E+00
  0.00000000E+00  0.00000000E+00  0.00000000E+00  0.00000000E+00  0.00000000E+00
  0.00000000E+00  0.00000000E+00  0.00000000E+00  0.00000000E+00  0.00000000E+00
  0.00000000E+00  0.00000000E+00  0.00000000E+00  0.00000000E+00  0.00000000E+00
  0.00000000E+00  0.00000000E+00  0.00000000E+00  0.00000000E+00  0.00000000E+00
  0.00000000E+00  0.00000000E+00  0.00000000E+00  0.00000000E+00  0.00000000E+00
  0.00000000E+00  0.00000000E+00
MxBond                                     I                4
NBond                                      I   N=           8
           4           4           1           1           1           1
           1           1
IBond                                      I   N=          32
           2           3           7           8           1           4
           5           6           1           0           0           0
           2           0           0           0           2           0
           0           0           2           0           0           0
           1           0           0           0           1           0
           0           0
RBond                                      R   N=          32
  1.00000000E+00  1.00000000E+00  1.00000000E+00  1.00000000E+00  1.00000000E+00
  1.00000000E+00  1.00000000E+00  1.00000000E+00  1.00000000E+00  0.00000000E+00
  0.00000000E+00  0.00000000E+00  1.00000000E+00  0.00000000E+00  0.00000000E+00
  0.00000000E+00  1.00000000E+00  0.00000000E+00  0.00000000E+00  0.00000000E+00
  1.00000000E+00  0.00000000E+00  0.00000000E+00  0.00000000E+00  1.00000000E+00
  0.00000000E+00  0.00000000E+00  0.00000000E+00  1.00000000E+00  0.00000000E+00
  0.00000000E+00  0.00000000E+00
Cartesian Gradient                         R   N=          24
  5.49173589E-10  1.84329209E-10  2.62432791E-04  4.66879322E-11  1.84496522E-10
 -2.62432792E-04  6.55463229E-05 -1.56632855E-10 -5.32163549E-05 -6.55461334E-05
 -1.56673453E-10  5.32163013E-05  3.27728913E-05 -5.67649186E-05  5.32162932E-05
  3.27730631E-05  5.67648908E-05  5.32163095E-05 -3.27732840E-05 -5.67645810E-05
 -5.32162657E-05 -3.27734558E-05  5.67645532E-05 -5.32162819E-05
Cartesian Force Constants                  R   N=         300
  6.39491423E-01 -3.67718210E-10  6.39491421E-01  2.60118968E-08 -1.76617919E-10
  4.97320347E-01 -9.52939442E-02 -1.29665788E-11  1.55117057E-08  6.39491422E-01
  1.68367286E-11 -9.52939443E-02  5.00035623E-11  3.66600743E-10  6.39491422E-01
  1.53579553E-08 -4.82589080E-11 -1.78469439E-01  2.64950529E-08  1.70106584E-10
  4.97320348E-01 -3.05768041E-01  1.88395118E-10  9.03797362E-02  3.36868583E-03
  1.57677813E-12 -2.36826783E-03  3.34474080E-01  2.62342197E-10 -6.01679627E-02
 -6.33578370E-11  3.22815636E-11 -2.31040160E-04 -1.64434424E-11 -1.56131402E-10
  5.79800901E-02  8.83380977E-02 -4.06519235E-11 -9.03452354E-02  4.00608254E-02
  8.03855429E-12 -1.59383605E-02 -9.97890698E-02  6.71373334E-11  1.01099388E-01
  3.36868572E-03 -1.44196977E-11 -2.36826762E-03 -3.05768041E-01 -1.79924029E-10
  9.03797359E-02  1.62952095E-03 -1.02627583E-11 -1.05846739E-03  3.34474081E-01
 -7.21568331E-12 -2.31040423E-04  4.02193730E-12 -2.24527334E-10 -6.01679627E-02
  4.78935920E-11 -4.12774604E-12  8.66146316E-04  3.37522473E-12  1.36527977E-10
  5.79800902E-02  4.00608256E-02 -1.80792494E-12 -1.59383606E-02  8.83380972E-02
  3.74985567E-11 -9.03452351E-02 -1.05846740E-03  1.29591349E-11 -8.12201547E-03
 -9.97890694E-02 -5.25094069E-11  1.01099387E-01  6.68896309E-04 -1.55873660E-03
  1.18413870E-03 -1.21567957E-01  1.06347925E-01 -4.51898936E-02  5.33050226E-04
 -5.34047416E-04 -2.50128078E-04 -1.73851735E-02  3.18800888E-02 -1.35255649E-02
  1.27103560E-01 -1.55872990E-03  2.46875934E-03 -2.05098329E-03  1.06347924E-01
 -2.44367997E-01  7.82712018E-02 -5.28143215E-04 -8.02056518E-05  7.41082770E-04
 -2.84424312E-04  8.56588935E-04 -1.28356779E-03 -1.19725377E-01  2.65350556E-01
 -2.00304079E-02  3.46936892E-02 -1.59383711E-02 -4.41690743E-02  7.65030908E-02
 -9.03452850E-02  7.66860286E-04  1.53924304E-04  1.82888365E-03  5.65117397E-03
 -1.23552571E-02  4.82422832E-03  4.98945611E-02 -8.64199290E-02  1.01099443E-01
  6.68896297E-04  1.55873663E-03  1.18413869E-03 -1.21567957E-01 -1.06347925E-01
 -4.51898939E-02  5.33050228E-04  5.34047400E-04 -2.50128083E-04 -1.73851734E-02
 -3.18800887E-02 -1.35255649E-02  9.97746799E-03  1.60822534E-02  7.87438363E-03
  1.27103560E-01  1.55872972E-03  2.46875927E-03  2.05098335E-03 -1.06347924E-01
 -2.44367996E-01 -7.82712019E-02  5.28143279E-04 -8.02056536E-05 -7.41082819E-04
  2.84424405E-04  8.56588922E-04  1.28356774E-03 -1.60822534E-02 -2.65060567E-02
 -1.10716983E-02  1.19725377E-01  2.65350555E-01 -2.00304079E-02 -3.46936892E-02
 -1.59383710E-02 -4.41690745E-02 -7.65030910E-02 -9.03452853E-02  7.66860290E-04
 -1.53924307E-04  1.82888365E-03  5.65117394E-03  1.23552571E-02  4.82422832E-03
  7.87438362E-03  1.10716983E-02  4.82423271E-03  4.98945613E-02  8.64199292E-02
  1.01099443E-01 -1.21567958E-01 -1.06347925E-01 -4.51898937E-02  6.68896285E-04
  1.55873633E-03  1.18413877E-03 -1.73851733E-02 -3.18800887E-02 -1.35255649E-02
  5.33050233E-04  5.34047430E-04 -2.50128054E-04 -3.86833400E-04 -2.95210458E-06
 -5.16733143E-04  1.05698981E-03  3.30550692E-04  5.29236342E-04  1.27103560E-01
 -1.06347925E-01 -2.44367996E-01 -7.82712013E-02  1.55872987E-03  2.46875934E-03
  2.05098349E-03  2.84424699E-04  8.56588873E-04  1.28356772E-03  5.28143231E-04
 -8.02056174E-05 -7.41082773E-04  2.95213987E-06  8.39678376E-04 -5.87158531E-04
  3.30550567E-04  1.43867716E-03  9.16661297E-04  1.19725378E-01  2.65350555E-01
 -4.41690743E-02 -7.65030903E-02 -9.03452846E-02 -2.00304079E-02 -3.46936891E-02
 -1.59383712E-02  5.65117410E-03  1.23552571E-02  4.82422829E-03  7.66860258E-04
 -1.53924380E-04  1.82888368E-03 -5.16733214E-04  5.87158526E-04  1.82888336E-03
  5.29236402E-04  9.16661341E-04 -8.12201489E-03  4.98945611E-02  8.64199285E-02
  1.01099443E-01 -1.21567958E-01  1.06347925E-01 -4.51898939E-02  6.68896236E-04
 -1.55873635E-03  1.18413877E-03 -1.73851732E-02  3.18800886E-02 -1.35255649E-02
  5.33050254E-04 -5.34047429E-04 -2.50128095E-04  1.05698982E-03 -3.30550601E-04
  5.29236350E-04 -3.86833359E-04  2.95211004E-06 -5.16733126E-04  9.97746788E-03
 -1.60822537E-02  7.87438348E-03  1.27103561E-01  1.06347925E-01 -2.44367996E-01
  7.82712015E-02 -1.55872982E-03  2.46875932E-03 -2.05098350E-03 -2.84424792E-04
  8.56588887E-04 -1.28356771E-03 -5.28143255E-04 -8.02056003E-05  7.41082827E-04
 -3.30550649E-04  1.43867714E-03 -9.16661330E-04 -2.95213701E-06  8.39678459E-04
  5.87158545E-04  1.60822537E-02 -2.65060567E-02  1.10716984E-02 -1.19725378E-01
  2.65350554E-01 -4.41690746E-02  7.65030905E-02 -9.03452848E-02 -2.00304079E-02
  3.46936891E-02 -1.59383711E-02  5.65117412E-03 -1.23552571E-02  4.82422828E-03
  7.66860281E-04  1.53924384E-04  1.82888364E-03  5.29236409E-04 -9.16661304E-04
 -8.12201488E-03 -5.16733172E-04 -5.87158554E-04  1.82888336E-03  7.87438348E-03
 -1.10716984E-02  4.82423278E-03  4.98945614E-02 -8.64199287E-02  1.01099443E-01
Dipole Moment                              R   N=           3
 -1.12333964E-09 -5.91455773E-10 -1.53477231E-12
Dipole Derivatives                         R   N=          72
  9.37931376E-02 -1.80409614E-10  1.54775167E-08 -3.19996244E-10  9.37931370E-02
 -2.20530830E-10  1.53186512E-08 -3.02117442E-10  8.49450197E-03  9.37931366E-02
  2.43430836E-10  1.63725480E-08  3.00451803E-10  9.37931380E-02  2.23490217E-10
  1.64425025E-08  2.99312575E-10  8.49450021E-03 -1.37841385E-01  5.72129011E-11
  1.01589749E-01  1.07812139E-10  7.53125946E-02  1.73693799E-10  7.13268022E-02
  2.16205054E-10 -2.83146870E-03 -1.37841387E-01 -7.19406756E-11  1.01589748E-01
 -2.99035904E-10  7.53125954E-02 -1.03351987E-10  7.13268017E-02 -1.96588079E-10
 -2.83146786E-03  2.20241249E-02  9.22983554E-02 -5.07948823E-02  9.22983518E-02
 -8.45528666E-02  8.79793418E-02 -3.56634093E-02  6.17708610E-02 -2.83151624E-03
  2.20241249E-02 -9.22983554E-02 -5.07948822E-02 -9.22983509E-02 -8.45528657E-02
 -8.79793421E-02 -3.56634092E-02 -6.17708613E-02 -2.83151649E-03  2.20241239E-02
 -9.22983559E-02 -5.07948824E-02 -9.22983521E-02 -8.45528667E-02 -8.79793427E-02
 -3.56634088E-02 -6.17708620E-02 -2.83151625E-03  2.20241243E-02  9.22983559E-02
 -5.07948825E-02  9.22983514E-02 -8.45528660E-02  8.79793429E-02 -3.56634084E-02
  6.17708623E-02 -2.83151665E-03
Polarizability                             R   N=           6
  2.08940109E+01  1.23669963E-10  2.08940109E+01 -2.45479246E-07 -5.46691581E-11
  2.22108385E+01
HyperPolarizability                        R   N=          10
 -1.42585504E-07  3.71293581E-09 -4.61602156E-08 -1.11394824E-07  4.03824711E-08
  5.08579160E-08  2.31237082E-07  9.92787995E-08  5.45395095E-08 -2.01944189E-07
QEq coupling tensors                       R   N=          48
  2.65667976E-02  9.29471777E-11  2.65667979E-02  1.46931326E-08 -8.19003476E-11
 -5.31335955E-02  2.65667980E-02 -9.28177864E-11  2.65667975E-02  1.49531592E-08
  8.32455736E-11 -5.31335955E-02 -2.76435544E-01  3.40820844E-10  1.74514540E-01
  1.67214552E-01 -1.28189431E-10  1.01921004E-01 -2.76435545E-01 -3.40677038E-10
  1.74514540E-01  1.67214551E-01  1.27978650E-10  1.01921005E-01  6.17770660E-02
  1.95267060E-01 -1.63697978E-01 -8.36073180E-02  1.44812147E-01  1.01920912E-01
  6.17770655E-02 -1.95267060E-01 -1.63697977E-01 -8.36073185E-02 -1.44812147E-01
  1.01920911E-01  6.17770647E-02 -1.95267061E-01 -1.63697977E-01 -8.36073183E-02
 -1.44812146E-01  1.01920912E-01  6.17770641E-02  1.95267061E-01 -1.63697976E-01
 -8.36073187E-02  1.44812146E-01  1.01920912E-01
Mulliken Charges                           R   N=           8
 -6.00875049E-01 -6.00875049E-01  2.00291683E-01  2.00291683E-01  2.00291683E-01
  2.00291683E-01  2.00291683E-01  2.00291683E-01
Optimization MaxStp                        I                2
Optimization Job offset                    I                0
Optimization Num results per geometry      I                2
Optimization Num geometry variables        I               24
Opt point       1 Results for each geome   R   N=           2
 -7.87939479E+01  0.00000000E+00
Opt point       1 Geometries               R   N=          24
  2.83458923E+01  2.83458920E+01  2.68888084E+01  2.83458917E+01  2.83458920E+01
  2.98029756E+01  3.02611807E+01  2.83458920E+01  2.61609560E+01  2.64306033E+01
  2.83458920E+01  3.05308281E+01  2.93035358E+01  2.66872037E+01  3.05308286E+01
  2.93035358E+01  3.00045803E+01  3.05308286E+01  2.73882483E+01  2.66872037E+01
  2.61609554E+01  2.73882483E+01  3.00045803E+01  2.61609554E+01
Opt point       1 Gradient at each geome   R   N=          24
  5.49173589E-10  1.84329209E-10  2.62432791E-04  4.66879322E-11  1.84496522E-10
 -2.62432792E-04  6.55463229E-05 -1.56632855E-10 -5.32163549E-05 -6.55461334E-05
 -1.56673453E-10  5.32163013E-05  3.27728913E-05 -5.67649186E-05  5.32162932E-05
  3.27730631E-05  5.67648908E-05  5.32163095E-05 -3.27732840E-05 -5.67645810E-05
 -5.32162657E-05 -3.27734558E-05  5.67645532E-05 -5.32162819E-05
Optimization Number of geometries          I   N=           1
           1
