no title                                                                
Freq      RB3LYP                                                      6-31G(d)            
Number of atoms                            I                6
Charge                                     I                0
Multiplicity                               I                1
Number of electrons                        I               16
Number of alpha electrons                  I                8
Number of beta electrons                   I                8
Number of basis functions                  I               38
Number of independant functions            I               38
Number of point charges in /Mol/           I                0
Number of translation vectors              I                0
Info1-9                                    I   N=           9
          18          15           0           0           0         100
           6          18        -502
Num ILSW                                   I              100
ILSW                                       I   N=         100
           0           1           0           0           2           0
           0           0           0           0         402      200000
           5           0           0           0           0           0
           0      800000           0           0           1           0
           1           0           0           0     1000000           0
           0           0      100000           0          -1           0
           0           0           0           0           0           0
           0           0           0           1           0           0
           0           0           1      720000      810000           0
           0           0           0           0           0           0
           0           0           0           0           0           0
           0           0           0           0           0           0
           0           0           0           0           0           0
           0           0           0           0           0           0
           0           0           0           0           0           0
           0           0           0           0           0           0
           0           0           0           0
Number of contracted shells                I               16
Highest angular momentum                   I                2
Largest degree of contraction              I                6
Number of primitive shells                 I               38
Pure/Cartesian d shells                    I                1
Pure/Cartesian f shells                    I                0
Virial Ratio                               R      2.010510669797077E+00
SCF Energy                                 R     -7.858745868716800E+01
Total Energy                               R     -7.858745868716800E+01
RMS Force                                  R      2.054426999185053E-07
RMS Density                                R      5.707751931632492E-09
Atomic numbers                             I   N=           6
           6           6           1           1           1           1
Nuclear charges                            R   N=           6
  6.00000000E+00  6.00000000E+00  1.00000000E+00  1.00000000E+00  1.00000000E+00
  1.00000000E+00
Current cartesian coordinates              R   N=          18
  1.25756597E+00  1.74522336E-16 -6.10828178E-17 -1.25756531E+00 -1.74522245E-16
  6.10827858E-17  2.34245953E+00 -1.74533235E+00 -1.13778547E-16  2.34246027E+00
  1.74533272E+00 -1.13778583E-16 -2.34246300E+00 -1.74532941E+00  1.13778716E-16
 -2.34246074E+00  1.74533196E+00  1.13778606E-16
Int Atom Types                             I   N=           6
           0           0           0           0           0           0
Force Field                                I                0
MM charges                                 R   N=           6
  0.00000000E+00  0.00000000E+00  0.00000000E+00  0.00000000E+00  0.00000000E+00
  0.00000000E+00
Integer atomic weights                     I   N=           6
          12          12           1           1           1           1
Real atomic weights                        R   N=           6
  1.20000000E+01  1.20000000E+01  1.00782504E+00  1.00782504E+00  1.00782504E+00
  1.00782504E+00
Atom residue info                          I   N=           6
           0           0           0           0           0           0
Atom fragment info                         I   N=           6
           0           0           0           0           0           0
Atom residue num                           I   N=           6
           0           0           0           0           0           0
Nuclear spins                              I   N=           6
           0           0           1           1           1           1
Nuclear ZEff                               R   N=           6
 -3.60000000E+00 -3.60000000E+00 -1.00000000E+00 -1.00000000E+00 -1.00000000E+00
 -1.00000000E+00
Nuclear QMom                               R   N=           6
  0.00000000E+00  0.00000000E+00  0.00000000E+00  0.00000000E+00  0.00000000E+00
  0.00000000E+00
Nuclear GFac                               R   N=           6
  0.00000000E+00  0.00000000E+00  2.79284600E+00  2.79284600E+00  2.79284600E+00
  2.79284600E+00
MicOpt                                     I   N=           6
          -1          -1          -1          -1          -1          -1
Constraint Structure                       R   N=          18
  1.25756597E+00  1.74522336E-16 -6.10828178E-17 -1.25756531E+00 -1.74522245E-16
  6.10827858E-17  2.34245953E+00 -1.74533235E+00 -1.13778547E-16  2.34246027E+00
  1.74533272E+00 -1.13778583E-16 -2.34246300E+00 -1.74532941E+00  1.13778716E-16
 -2.34246074E+00  1.74533196E+00  1.13778606E-16
ONIOM Charges                              I   N=          16
           0           0           0           0           0           0
           0           0           0           0           0           0
           0           0           0           0
ONIOM Multiplicities                       I   N=          16
           1           0           0           0           0           0
           0           0           0           0           0           0
           0           0           0           0
Atom Layers                                I   N=           6
           1           1           1           1           1           1
Atom Modifiers                             I   N=           6
           0           0           0           0           0           0
Int Atom Modified Types                    I   N=           6
           0           0           0           0           0           0
Link Atoms                                 I   N=           6
           0           0           0           0           0           0
Atom Modified MM Charges                   R   N=           6
  0.00000000E+00  0.00000000E+00  0.00000000E+00  0.00000000E+00  0.00000000E+00
  0.00000000E+00
Link Distances                             R   N=          24
  0.00000000E+00  0.00000000E+00  0.00000000E+00  0.00000000E+00  0.00000000E+00
  0.00000000E+00  0.00000000E+00  0.00000000E+00  0.00000000E+00  0.00000000E+00
  0.00000000E+00  0.00000000E+00  0.00000000E+00  0.00000000E+00  0.00000000E+00
  0.00000000E+00  0.00000000E+00  0.00000000E+00  0.00000000E+00  0.00000000E+00
  0.00000000E+00  0.00000000E+00  0.00000000E+00  0.00000000E+00
MxBond                                     I                3
NBond                                      I   N=           6
           3           3           1           1           1           1
IBond                                      I   N=          18
           2           3           4           1           5           6
           1           0           0           1           0           0
           2           0           0           2           0           0
RBond                                      R   N=          18
  2.00000000E+00  1.00000000E+00  1.00000000E+00  2.00000000E+00  1.00000000E+00
  1.00000000E+00  1.00000000E+00  0.00000000E+00  0.00000000E+00  1.00000000E+00
  0.00000000E+00  0.00000000E+00  1.00000000E+00  0.00000000E+00  0.00000000E+00
  1.00000000E+00  0.00000000E+00  0.00000000E+00
Shell types                                I   N=          16
           0          -1          -1           2           0          -1
          -1           2           0           0           0           0
           0           0           0           0
Number of primitives per shell             I   N=          16
           6           3           1           1           6           3
           1           1           3           1           3           1
           3           1           3           1
Shell to atom map                          I   N=          16
           1           1           1           1           2           2
           2           2           3           3           4           4
           5           5           6           6
Primitive exponents                        R   N=          38
  3.04752488E+03  4.57369518E+02  1.03948685E+02  2.92101553E+01  9.28666296E+00
  3.16392696E+00  7.86827235E+00  1.88128854E+00  5.44249258E-01  1.68714478E-01
  8.00000000E-01  3.04752488E+03  4.57369518E+02  1.03948685E+02  2.92101553E+01
  9.28666296E+00  3.16392696E+00  7.86827235E+00  1.88128854E+00  5.44249258E-01
  1.68714478E-01  8.00000000E-01  1.87311370E+01  2.82539436E+00  6.40121692E-01
  1.61277759E-01  1.87311370E+01  2.82539436E+00  6.40121692E-01  1.61277759E-01
  1.87311370E+01  2.82539436E+00  6.40121692E-01  1.61277759E-01  1.87311370E+01
  2.82539436E+00  6.40121692E-01  1.61277759E-01
Contraction coefficients                   R   N=          38
  1.83473713E-03  1.40373228E-02  6.88426223E-02  2.32184443E-01  4.67941348E-01
  3.62311985E-01 -1.19332420E-01 -1.60854152E-01  1.14345644E+00  1.00000000E+00
  1.00000000E+00  1.83473713E-03  1.40373228E-02  6.88426223E-02  2.32184443E-01
  4.67941348E-01  3.62311985E-01 -1.19332420E-01 -1.60854152E-01  1.14345644E+00
  1.00000000E+00  1.00000000E+00  3.34946043E-02  2.34726953E-01  8.13757326E-01
  1.00000000E+00  3.34946043E-02  2.34726953E-01  8.13757326E-01  1.00000000E+00
  3.34946043E-02  2.34726953E-01  8.13757326E-01  1.00000000E+00  3.34946043E-02
  2.34726953E-01  8.13757326E-01  1.00000000E+00
P(S=P) Contraction coefficients            R   N=          38
  0.00000000E+00  0.00000000E+00  0.00000000E+00  0.00000000E+00  0.00000000E+00
  0.00000000E+00  6.89990666E-02  3.16423961E-01  7.44308291E-01  1.00000000E+00
  0.00000000E+00  0.00000000E+00  0.00000000E+00  0.00000000E+00  0.00000000E+00
  0.00000000E+00  0.00000000E+00  6.89990666E-02  3.16423961E-01  7.44308291E-01
  1.00000000E+00  0.00000000E+00  0.00000000E+00  0.00000000E+00  0.00000000E+00
  0.00000000E+00  0.00000000E+00  0.00000000E+00  0.00000000E+00  0.00000000E+00
  0.00000000E+00  0.00000000E+00  0.00000000E+00  0.00000000E+00  0.00000000E+00
  0.00000000E+00  0.00000000E+00  0.00000000E+00
Coordinates of each shell                  R   N=          48
  1.25756597E+00  1.74522336E-16 -6.10828178E-17  1.25756597E+00  1.74522336E-16
 -6.10828178E-17  1.25756597E+00  1.74522336E-16 -6.10828178E-17  1.25756597E+00
  1.74522336E-16 -6.10828178E-17 -1.25756531E+00 -1.74522245E-16  6.10827858E-17
 -1.25756531E+00 -1.74522245E-16  6.10827858E-17 -1.25756531E+00 -1.74522245E-16
  6.10827858E-17 -1.25756531E+00 -1.74522245E-16  6.10827858E-17  2.34245953E+00
 -1.74533235E+00 -1.13778547E-16  2.34245953E+00 -1.74533235E+00 -1.13778547E-16
  2.34246027E+00  1.74533272E+00 -1.13778583E-16  2.34246027E+00  1.74533272E+00
 -1.13778583E-16 -2.34246300E+00 -1.74532941E+00  1.13778716E-16 -2.34246300E+00
 -1.74532941E+00  1.13778716E-16 -2.34246074E+00  1.74533196E+00  1.13778606E-16
 -2.34246074E+00  1.74533196E+00  1.13778606E-16
Alpha Orbital Energies                     R   N=          38
 -1.01842746E+01 -1.01833818E+01 -7.54741127E-01 -5.77333524E-01 -4.64668251E-01
 -4.16404116E-01 -3.53213259E-01 -2.66627403E-01  1.87844348E-02  1.22367295E-01
  1.40249328E-01  1.57560177E-01  2.44057002E-01  3.32366510E-01  4.80347670E-01
  5.48460076E-01  5.68552320E-01  6.37271996E-01  6.55233963E-01  6.99025049E-01
  8.47493304E-01  8.72189605E-01  9.31709669E-01  9.41097027E-01  1.10572894E+00
  1.21576426E+00  1.46273290E+00  1.54518463E+00  1.83288653E+00  1.89028007E+00
  1.98790175E+00  2.08823379E+00  2.28541429E+00  2.38623026E+00  2.70145332E+00
  2.70531032E+00  4.09687921E+00  4.24634382E+00
Alpha MO coefficients                      R   N=        1444
  7.01792180E-01  3.43950423E-02  2.99503763E-04 -1.71369460E-10  1.18728757E-10
 -6.02659592E-03 -7.15580233E-04  4.58439979E-10 -5.45789922E-11 -6.69218308E-03
 -6.83268208E-03 -7.00771503E-03 -8.95532521E-11 -2.55658406E-12  5.30164233E-13
  7.01770477E-01  3.43939548E-02 -2.99514303E-04 -2.11202164E-10  9.30245792E-12
 -6.02620224E-03  7.15651431E-04 -9.32650259E-10  6.28015501E-12 -6.69198787E-03
 -6.83248045E-03 -7.00750463E-03  6.92463718E-10 -6.40251635E-12 -5.30233676E-13
 -2.92580951E-04  1.56166886E-03 -2.92580728E-04  1.56166765E-03 -2.92575808E-04
  1.56162145E-03 -2.92574721E-04  1.56162105E-03 -7.02121020E-01 -3.51853378E-02
  3.13188019E-04  1.10102217E-10 -1.17509521E-10  1.24292041E-02 -2.02274159E-03
 -3.08419189E-10  5.69793689E-11  6.27898121E-03  6.55451698E-03  6.82281933E-03
  3.81619140E-10  5.15309553E-12 -4.78984955E-13  7.02142712E-01  3.51864010E-02
  3.13176948E-04 -5.29013673E-11  2.05434183E-11 -1.24293931E-02 -2.02271455E-03
 -1.32295738E-09 -1.89895713E-11 -6.27918744E-03 -6.55472895E-03 -6.82303642E-03
  7.70837045E-10  9.36196838E-12 -4.78759899E-13  1.84760093E-04 -1.54599458E-03
  1.84759815E-04 -1.54599368E-03 -1.84769602E-04  1.54604401E-03 -1.84768365E-04
  1.54604400E-03 -1.60403597E-01  3.10066266E-01 -1.00101913E-01 -3.90953190E-08
  3.49934658E-09  2.32805975E-01 -4.33954806E-03  2.56425474E-08  1.83884445E-09
  7.98762744E-03 -1.33438123E-04 -1.67269540E-02 -1.14508033E-09 -2.64387701E-10
 -1.02919267E-11 -1.60403606E-01  3.10066274E-01  1.00101834E-01 -9.68861359E-09
  9.01878398E-10  2.32805960E-01  4.33947414E-03 -1.71409884E-08  4.38827055E-10
  7.98766384E-03 -1.33475683E-04 -1.67269560E-02  1.22398795E-08  2.60657914E-10
  1.03009292E-11  8.43576551E-02  1.78409417E-02  8.43575893E-02  1.78409086E-02
  8.43576193E-02  1.78408815E-02  8.43575835E-02  1.78409080E-02 -1.23089606E-01
  2.47475862E-01  1.72049866E-01 -9.49850976E-08  2.74051319E-09  2.30919307E-01
  6.98389981E-02  2.05784820E-08  2.04625571E-09 -8.16424043E-03  1.34842291E-02
 -1.13425575E-02 -9.88341677E-09  4.06106863E-10 -4.30231453E-12  1.23089582E-01
 -2.47475811E-01  1.72050619E-01  1.19195767E-07 -2.23680501E-10 -2.30919346E-01
  6.98392113E-02 -1.96882285E-08 -7.88718437E-10  8.16419699E-03 -1.34842113E-02
  1.13425589E-02 -3.51000526E-08  3.29434919E-11 -4.31287819E-12  1.45894724E-01
  6.58715607E-02  1.45894620E-01  6.58714935E-02 -1.45895047E-01 -6.58717053E-02
 -1.45894758E-01 -6.58715442E-02 -9.66058149E-10 -9.07513431E-09 -5.45664263E-07
  3.31057655E-01  2.85174719E-10  1.31149719E-08 -1.78352447E-07  1.21051847E-01
  1.25150979E-10  1.55273641E-08 -3.18094526E-08 -1.29663445E-10  6.10606513E-03
  1.85937383E-11  9.43913529E-10 -1.92828773E-08  3.71577787E-08  6.05904401E-07
  3.31056974E-01 -2.85378465E-10  1.59504523E-08  1.58072704E-07  1.21051748E-01
 -1.25165229E-10 -1.39386431E-08  3.08953830E-09  4.47805301E-10 -6.10603853E-03
  1.85932657E-11  2.32084341E-10 -1.55273444E-01 -1.12001572E-01  1.55273075E-01
  1.12001335E-01 -1.55272885E-01 -1.12001140E-01  1.55272679E-01  1.12001012E-01
  1.46803295E-02 -3.26678785E-02  4.14128384E-01  7.56279379E-07 -2.20822783E-09
 -3.25189140E-03  1.41553162E-01  2.54381885E-07 -8.46456092E-10 -5.43806941E-03
  1.90490860E-02  4.91878087E-04  3.46699826E-08  1.04425527E-09  6.64063171E-12
  1.46806217E-02 -3.26684621E-02 -4.14128107E-01  1.29117857E-07 -1.25320742E-10
 -3.25270156E-03 -1.41552978E-01  1.52321707E-07 -4.04750259E-10 -5.43795738E-03
  1.90490347E-02  4.91894895E-04  4.62630573E-08 -3.47612721E-10 -6.62617020E-12
  1.24844754E-01  1.08168294E-01  1.24845594E-01  1.08169042E-01  1.24845093E-01
  1.08168629E-01  1.24844881E-01  1.08168425E-01 -7.04713136E-08  1.54241481E-07
 -4.74739719E-07  3.09511468E-01  2.65428467E-10  1.47906623E-07 -1.15697208E-07
  1.16785468E-01  2.25966172E-11  9.12862969E-09 -2.47687004E-08 -1.95047854E-10
  3.05825775E-02  3.83251803E-12  8.37914740E-10 -7.88183097E-09  2.84897782E-08
  4.62587730E-07 -3.09512214E-01  2.65188137E-10 -5.14324986E-08  2.98894600E-07
 -1.16785836E-01  2.26467354E-11  3.23195016E-08 -6.07981848E-08 -6.78622969E-10
  3.05826313E-02 -3.83195612E-12 -1.51294467E-10 -1.97278813E-01 -1.96947822E-01
  1.97278625E-01  1.96947623E-01  1.97278842E-01  1.96947895E-01 -1.97279313E-01
 -1.96948345E-01  1.06812875E-09 -3.38827173E-09  1.48282167E-09 -1.22949536E-10
  4.01437320E-01 -1.52169870E-10 -5.05759497E-10 -2.61462752E-10  2.84542770E-01
 -4.59620372E-10 -5.12837801E-10  1.04368265E-09  4.70656216E-12 -1.61112506E-02
 -4.09827754E-09  4.58233921E-10 -1.44137963E-09 -2.36598949E-09  1.23093746E-10
  4.01437296E-01 -8.71059826E-11 -6.85896985E-10  2.62213603E-10  2.84542770E-01
 -2.18940627E-10 -8.07751728E-11  3.02745621E-10  4.67661605E-12  1.61112309E-02
 -3.55233109E-09 -6.76377250E-10  1.55367968E-10 -7.56546202E-10  1.71532468E-10
  2.18815899E-10 -2.24643961E-11  2.98966961E-10 -4.01291300E-11 -7.56461254E-10
 -1.53570207E-10  4.96777745E-11 -1.26056435E-11  4.18979690E-01  2.45415673E-08
 -1.68736170E-09  4.62975527E-11  6.32116455E-01 -7.66479144E-10 -7.69267207E-10
  1.16465643E-09 -9.31138029E-12  2.50625372E-02 -5.87794624E-09  7.52521123E-10
 -3.03976843E-10 -2.39143104E-09 -1.23881894E-11 -4.18979695E-01 -1.41629939E-08
 -7.79930434E-09  5.06759868E-11 -6.32116468E-01  4.03874741E-10  1.39609898E-10
 -2.19831731E-10  9.27558056E-12  2.50625624E-02  7.73148400E-09 -2.07185447E-09
 -8.60477443E-09 -2.20425823E-09 -9.17701479E-09  1.02153227E-09  2.19544600E-09
  8.88982235E-10  1.61726275E-09 -8.17611837E-02  1.27035447E-01  1.83390955E-01
  1.50099436E-06 -1.51441465E-10  1.38071884E+00  5.91347346E-01  3.05024196E-06
 -4.12107406E-09  4.43377116E-03 -1.38818802E-02 -3.50585634E-03 -1.38567165E-07
  3.95400456E-10 -3.49298240E-12 -8.17608288E-02  1.27035010E-01 -1.83390364E-01
  1.73320915E-06  2.04523286E-09  1.38071290E+00 -5.91348269E-01  4.09431816E-06
  2.46472159E-09  4.43380688E-03 -1.38818340E-02 -3.50583687E-03  1.36955336E-07
 -1.35695435E-10  3.47867410E-12 -4.03916619E-02 -9.76997842E-01 -4.03925015E-02
 -9.77006758E-01 -4.03911180E-02 -9.76994966E-01 -4.03920541E-02 -9.77004477E-01
  2.14642017E-07 -2.99575333E-07 -8.88680521E-07  3.04636131E-01 -9.64423819E-11
 -5.38034900E-06 -2.95601945E-06  7.09641816E-01 -1.99991944E-10 -4.74429187E-08
  6.01282666E-08  1.11953389E-08 -2.63681471E-02 -3.82942247E-12  7.74210123E-10
  6.09670146E-07 -9.62204974E-07  1.12770725E-06  3.04636298E-01  9.69747692E-11
 -1.03226004E-05  3.95664566E-06  7.09640410E-01  1.99137431E-10  2.59579550E-08
  4.84557041E-08  2.60948929E-08  2.63681160E-02 -3.82513881E-12  2.76823083E-10
  7.70125228E-02  9.99191615E-01 -7.70123742E-02 -9.99183538E-01  7.70127609E-02
  9.99193392E-01 -7.70122921E-02 -9.99179842E-01  1.14292359E-01 -1.60843801E-01
 -1.16331529E-01  3.46338289E-07  4.90694485E-10 -1.82807306E+00 -1.04282701E-01
  1.08220305E-06  6.70222767E-09  9.07568596E-03  1.83885053E-03  9.58106149E-03
 -3.65426925E-08 -5.96349027E-11  6.56975004E-12 -1.14292586E-01  1.60844006E-01
 -1.16332562E-01  7.19466292E-07 -2.22682618E-09  1.82807875E+00 -1.04285758E-01
  1.46173784E-06 -5.46524684E-09 -9.07571828E-03 -1.83882977E-03 -9.58108981E-03
  3.30516552E-08  2.40976269E-10  6.12012775E-12  5.24123274E-02  9.97148550E-01
  5.24121990E-02  9.97145411E-01 -5.24120853E-02 -9.97149479E-01 -5.24122912E-02
 -9.97152357E-01  2.83860669E-08 -1.06950482E-07  3.43635332E-07  3.28680028E-01
  6.03869436E-11 -6.14515086E-07  4.61901624E-07  1.65597492E+00 -3.49451113E-11
 -3.29402899E-09 -2.03916399E-09  1.10691567E-08  1.89505376E-02  5.07324584E-12
  8.63905026E-10 -6.19333914E-08  6.71673649E-08 -2.35066740E-07 -3.28679885E-01
  6.10393872E-11  2.15823542E-06 -5.85761027E-07 -1.65597370E+00 -3.77574894E-11
 -3.96299738E-08  3.42544513E-08 -6.66008786E-09  1.89504358E-02 -5.02550665E-12
 -1.73948949E-10 -1.83444542E-02  1.48204138E+00  1.83443030E-02 -1.48204135E+00
  1.83440902E-02 -1.48204172E+00 -1.83438709E-02  1.48203977E+00 -7.12969201E-02
  3.33896595E-02 -1.98799228E-01  6.27028993E-08  1.16428054E-09  2.96778320E+00
 -2.84519877E+00  1.03741173E-06 -3.69834633E-09 -1.96895652E-02  2.59192932E-02
 -1.01407365E-02  1.28876019E-08 -7.73973393E-10 -1.56830499E-11  7.12968595E-02
 -3.33894975E-02 -1.98799951E-01 -1.51868962E-07  1.19512242E-10 -2.96778039E+00
 -2.84519940E+00 -1.35930757E-06  2.41820403E-09  1.96895314E-02 -2.59190907E-02
  1.01406448E-02  1.71749594E-08 -2.55612209E-10 -1.59568903E-11  8.37413006E-02
  5.51385332E-01  8.37412624E-02  5.51383955E-01 -8.37400596E-02 -5.51389877E-01
 -8.37405668E-02 -5.51385523E-01 -2.03332420E-02 -1.90486387E-01  5.60890940E-01
 -2.61747469E-07 -5.05689247E-09 -2.87365727E-01 -1.06285119E+00  3.47674244E-07
  4.06824951E-09 -7.68856545E-02  3.72951391E-02  3.77335329E-03 -3.04773886E-08
  6.27994917E-10 -6.24536801E-12 -2.03334303E-02 -1.90486971E-01 -5.60889529E-01
  8.00254363E-07 -6.98846260E-09 -2.87357942E-01  1.06285959E+00 -4.92257767E-07
  5.84478256E-09 -7.68859877E-02  3.72951088E-02  3.77334720E-03 -6.06776099E-09
 -4.25964105E-10  6.26039898E-12  6.82504893E-02  1.25997048E-01  6.82502873E-02
  1.25997634E-01  6.82496754E-02  1.26002033E-01  6.82501603E-02  1.26000051E-01
  6.37135196E-10  1.39738343E-08  4.93962344E-09 -8.24365853E-11  7.29877093E-01
 -4.32164727E-08 -1.00856666E-08 -3.46106920E-12 -6.50025771E-01  1.72675051E-10
  1.79230526E-09  5.22313046E-10 -1.07709434E-12 -5.57309410E-02 -2.06408165E-09
  2.40982584E-10  8.36226690E-09 -4.72208893E-09  7.77307247E-11  7.29877062E-01
 -1.37041367E-08  2.01993816E-08  1.10978473E-11 -6.50025712E-01  4.70399536E-10
  2.04064384E-09 -1.83253591E-10 -4.40655273E-13  5.57309393E-02 -5.06912218E-09
  5.03781458E-09  9.18388366E-09  4.93737943E-09  9.24195378E-09  5.11837290E-09
  5.62984994E-09  5.21228282E-09  5.57066100E-09 -1.45374318E-08  8.01032392E-07
 -5.29792433E-07 -4.07166945E-01 -6.02936448E-11 -3.69425498E-06  1.16072394E-06
  7.71499995E-01  1.82564706E-10 -1.19708699E-07  9.13221813E-08  2.44416781E-08
 -9.50933858E-02  5.61336531E-12  3.05287212E-11  9.58563268E-08  1.09157673E-06
 -7.80710480E-07 -4.07168356E-01  5.32922025E-11 -1.43932639E-06  3.67016602E-06
  7.71502318E-01 -1.76404048E-10  3.02325330E-07  1.14647277E-07 -9.00359716E-08
  9.50935480E-02  5.05072515E-12  2.30653041E-10  3.84239853E-01  6.48041111E-02
 -3.84239678E-01 -6.48033572E-02  3.84241617E-01  6.48032907E-02 -3.84239774E-01
 -6.48016063E-02 -1.60726257E-09 -3.18505626E-08  1.44789135E-09  7.30364939E-11
 -7.84149329E-01  7.97199282E-08  2.92739397E-10 -2.20237504E-11  1.13937980E+00
 -2.14873453E-09 -4.24294255E-09  3.73108922E-10  7.21598825E-12 -1.98467026E-02
  2.93234594E-09 -1.00583559E-09 -1.92758836E-08 -4.07908312E-11  7.56910911E-11
  7.84149368E-01  1.84962213E-08 -2.24763542E-08 -2.87157427E-11 -1.13937982E+00
 -2.81340352E-09 -4.40099469E-09  2.31375156E-09 -7.29329994E-12 -1.98466981E-02
 -3.63064611E-09 -1.23352939E-08 -1.17027204E-08 -1.21746738E-08 -1.17746270E-08
 -1.35970198E-08 -4.34186096E-09 -1.34359010E-08 -4.41003844E-09 -3.79008924E-02
 -7.08906096E-01  3.26381327E-02 -3.14377055E-07  3.40028944E-08  1.35120543E+00
  3.38282558E-01  2.20686034E-08 -4.59963754E-08 -7.72425975E-02 -1.49079535E-01
  5.80946202E-02 -1.76336402E-07 -9.19295523E-11 -1.27312946E-11 -3.79006088E-02
 -7.08906107E-01 -3.26387796E-02 -7.00236421E-07 -1.56381768E-08  1.35119409E+00
 -3.38294374E-01  1.55414497E-06  2.83035413E-08 -7.72425239E-02 -1.49079357E-01
  5.80945248E-02  9.73684220E-08  1.32962101E-09  1.26467632E-11 -4.27660427E-01
 -1.60189821E-01 -4.27661758E-01 -1.60188445E-01 -4.27659897E-01 -1.60192560E-01
 -4.27661046E-01 -1.60192546E-01 -8.79600611E-02  3.55301224E-02 -6.36598326E-01
  7.08044623E-07 -2.30916742E-09  4.19230080E-01  7.36381769E-01 -2.48500708E-06
  3.87071631E-10 -1.62438387E-01 -4.29568613E-02  8.91469473E-02  6.67838055E-08
 -1.05453794E-09 -2.39491484E-11  8.79601204E-02 -3.55298917E-02 -6.36599301E-01
  9.64584357E-07  1.80071957E-09 -4.19234537E-01  7.36386244E-01 -9.07314155E-07
 -4.14092502E-10  1.62438365E-01  4.29569985E-02 -8.91470124E-02 -2.67219473E-08
 -6.95971200E-10 -2.39454658E-11 -3.62974422E-01 -1.01334577E-01 -3.62973636E-01
 -1.01332122E-01  3.62974560E-01  1.01335020E-01  3.62974989E-01  1.01335403E-01
 -4.75451655E-08 -1.98905445E-06 -5.29932440E-07 -6.64385395E-01  3.41158754E-11
  3.95675510E-06 -1.07002955E-07  1.13880208E+00 -1.54644832E-11 -2.68505078E-07
 -5.46004650E-08 -1.00484512E-08  1.68208933E-01 -3.08041134E-12 -8.48155743E-10
  8.26749928E-08 -2.11193424E-06  3.42209016E-07 -6.64386171E-01 -3.47969522E-11
  2.67083399E-06 -1.02507907E-06  1.13880338E+00  1.59837588E-11 -2.47219904E-07
  2.23649534E-07 -2.04103536E-07 -1.68209157E-01 -3.19841785E-12 -3.17199055E-10
 -3.94132000E-01  1.12899350E+00  3.94132586E-01 -1.12899529E+00 -3.94131536E-01
  1.12899318E+00  3.94134004E-01 -1.12899780E+00  6.58130775E-08 -7.83176432E-07
 -1.76641098E-06 -8.82399583E-01 -1.49471511E-11  1.55526994E-06  3.78214582E-06
  2.67931458E+00  7.43617891E-12 -1.74042577E-07  1.78313873E-07 -1.82590491E-07
  1.33767564E-02 -2.36440076E-11 -1.05715915E-09 -5.72037076E-08  9.93443153E-07
 -1.13069007E-06  8.82397985E-01 -1.68536678E-11  6.77990618E-08  9.18575067E-07
 -2.67931042E+00  9.81072626E-12  3.64013485E-07 -4.07665215E-07  2.04433150E-07
  1.33767593E-02  2.37467083E-11  1.24180638E-10 -2.51920584E-01  1.50183739E+00
  2.51922705E-01 -1.50184255E+00  2.51920226E-01 -1.50183613E+00 -2.51923216E-01
  1.50184009E+00  2.43252587E-02 -3.73868317E-01 -6.12319392E-01  2.21711222E-06
  1.84837893E-09  1.69463660E-01  1.42998633E+00 -7.67711035E-06 -1.59598906E-09
 -1.07570456E-01  1.13741362E-01 -8.09390851E-02  1.17987894E-07 -1.11831119E-09
 -8.54889411E-12 -2.43246162E-02  3.73822190E-01 -6.12304714E-01 -2.74820407E-06
 -1.04365178E-09 -1.69377550E-01  1.42996410E+00  8.68306448E-06  8.72977158E-10
  1.07565576E-01 -1.13739297E-01  8.09355798E-02 -2.32651812E-07  3.23005547E-10
 -7.57205906E-12  4.89807329E-01 -1.02543709E+00  4.89806842E-01 -1.02542969E+00
 -4.89789370E-01  1.02539699E+00 -4.89787845E-01  1.02538637E+00  1.54682379E-02
 -1.01547398E+00 -3.33262467E-01  1.09035066E-06  4.15385244E-09  1.90392881E+00
  5.12244340E-01 -1.28763203E-06 -4.51939260E-09 -1.02358452E-01  4.61635976E-02
 -8.17543730E-02 -4.16616766E-07 -1.19413604E-09 -7.31663530E-12  1.54692397E-02
 -1.01549220E+00  3.33290475E-01  1.41876069E-06  6.41805553E-12  1.90394295E+00
 -5.12306238E-01 -3.04120590E-06  4.01462718E-10 -1.02363292E-01  4.61685137E-02
 -8.17580882E-02  5.44438736E-07  7.27805297E-10  7.40289393E-12  4.23502373E-01
 -9.33836380E-01  4.23500691E-01 -9.33832476E-01  4.23524458E-01 -9.33883362E-01
  4.23522747E-01 -9.33877445E-01 -3.21983549E-02 -1.53509511E+00  2.15286190E-01
  3.43452917E-07  3.98046143E-09  5.64302380E+00 -1.88983874E+00 -4.10622135E-06
 -5.88357142E-09  2.10226219E-02 -1.79967326E-01 -3.22556616E-02  1.98177086E-07
  7.85801272E-10 -3.15132334E-12  3.21983487E-02  1.53509396E+00  2.15286041E-01
  1.01430425E-07 -1.52847349E-09 -5.64302313E+00 -1.88983713E+00  2.74170329E-06
  3.54190120E-09 -2.10227642E-02  1.79967298E-01  3.22557045E-02  1.70038720E-07
  1.04689092E-10 -2.75076532E-12 -1.06969271E-01 -4.03191054E-01 -1.06967523E-01
 -4.03188257E-01  1.06969877E-01  4.03189761E-01  1.06968203E-01  4.03188667E-01
 -8.07575595E-08 -2.06094104E-06 -6.05932370E-07 -1.63695283E-01  6.70772447E-12
  1.16527763E-05 -3.53846599E-06  2.90319105E+00  3.52242739E-11 -3.02824857E-08
 -1.54851651E-07 -1.28169447E-07 -1.62034742E-01  6.31554077E-12  1.90967651E-09
  9.21999443E-08  2.63550407E-06  2.07451468E-07  1.63694107E-01  5.68040995E-12
 -8.96662594E-06 -7.71192170E-06 -2.90318639E+00  3.63718389E-11 -1.48084000E-08
  6.29883186E-07 -1.54509324E-07 -1.62033904E-01 -6.20184813E-12 -2.00675795E-10
  6.68713320E-01  8.34959412E-01 -6.68713782E-01 -8.34960344E-01 -6.68712428E-01
 -8.34959146E-01  6.68712155E-01  8.34957290E-01  8.31175544E-11 -1.43716785E-10
 -2.35452933E-09 -4.47596831E-11  1.71452497E-01 -2.17611709E-09  3.22797217E-09
  3.66563633E-11 -3.60857141E-02 -1.20414942E-09  8.18621581E-10  4.31993137E-11
 -2.50689589E-11  6.19769006E-01 -2.08249151E-07 -1.24076218E-10 -1.15681821E-09
  2.38672467E-10  4.48593738E-11  1.71452469E-01  5.89847190E-09  1.55667735E-09
 -3.68515389E-11 -3.60857718E-02 -4.56684070E-10  3.87847796E-10 -4.24378316E-10
 -2.51225726E-11 -6.19769101E-01 -2.71865974E-07  7.52797893E-10 -1.15934579E-09
  7.97504469E-10 -1.22814698E-09 -3.56954984E-10 -4.55843624E-10 -4.01793354E-10
 -3.86611011E-10 -1.38008800E-11  5.00195745E-11 -4.25529998E-11 -1.59406531E-09
  6.26440718E-08  1.66758867E-10 -5.05167090E-11 -2.27862173E-09 -2.15806946E-08
 -1.86146381E-11 -5.83059106E-11 -1.30252451E-11  1.01894705E-09  2.40294215E-07
  6.80530259E-01  1.37995449E-11 -4.99407853E-11 -4.25784856E-11 -1.13802849E-10
  7.04793922E-08 -1.66934132E-10 -5.04451239E-11  2.90123420E-09 -7.49245039E-09
  1.86214392E-11  5.80957843E-11  1.32082519E-11 -2.13480297E-10 -1.96188568E-07
  6.80530026E-01 -8.10970795E-10 -4.55931966E-10  8.31564533E-10  4.18872159E-10
  7.71421189E-10  9.10761048E-10 -7.92024387E-10 -8.73522270E-10 -1.51463650E-11