Freq berekening op punt 108 uit 5Te_etheen_ts_deel2.log                 
Freq      RB3LYP                                                      6-31+G(d)           
Number of atoms                            I               34
Charge                                     I                0
Multiplicity                               I                1
Number of electrons                        I              146
Number of alpha electrons                  I               73
Number of beta electrons                   I               73
Number of basis functions                  I              309
Number of independant functions            I              309
Number of point charges in /Mol/           I                0
Number of translation vectors              I                0
Info1-9                                    I   N=           9
         141         140           0           0           0         100
           6          18        -502
Num ILSW                                   I              100
ILSW                                       I   N=         100
           0           1           0           0           2           0
           0           0           0           0         402      200000
           0           0           0           0           0           0
           0      800000           0           0           1           0
           1           0           0           0     1000000           0
           0           0      100000           0          -1           0
           0           0           0           0           0           0
           0           0           0           1           0           0
           0           0           1      720000      810000           0
           0           0           0           0           0           0
           0           0           0           0           0           0
           0           0           0           0           0           0
           0           0           0           0           0           0
           0           0           0           0           0           0
           0           0           0           0           0           0
           0           0           0           0           0           0
           0           0           0           0
Number of contracted shells                I              112
Highest angular momentum                   I                2
Largest degree of contraction              I                6
Number of primitive shells                 I              270
Pure/Cartesian d shells                    I                1
Pure/Cartesian f shells                    I                0
Virial Ratio                               R      2.005371164850720E+00
SCF Energy                                 R     -1.866643680122093E+03
Total Energy                               R     -1.866643680122093E+03
RMS Force                                  R      4.323876593179306E-05
RMS Density                                R      2.332423190670323E-09
Atomic numbers                             I   N=          34
           6           6           6           6           8          14
          13           8          14           8          14           8
          14           1           1           1           1           1
           1           1           1           1           1           1
           1           1           1           1           1           1
           1           1           1           1
Nuclear charges                            R   N=          34
  6.00000000E+00  6.00000000E+00  6.00000000E+00  6.00000000E+00  8.00000000E+00
  1.40000000E+01  1.30000000E+01  8.00000000E+00  1.40000000E+01  8.00000000E+00
  1.40000000E+01  8.00000000E+00  1.40000000E+01  1.00000000E+00  1.00000000E+00
  1.00000000E+00  1.00000000E+00  1.00000000E+00  1.00000000E+00  1.00000000E+00
  1.00000000E+00  1.00000000E+00  1.00000000E+00  1.00000000E+00  1.00000000E+00
  1.00000000E+00  1.00000000E+00  1.00000000E+00  1.00000000E+00  1.00000000E+00
  1.00000000E+00  1.00000000E+00  1.00000000E+00  1.00000000E+00
Current cartesian coordinates              R   N=         102
  4.89236828E+00  1.27891943E+00  2.79901326E+00  4.71007460E+00  1.13085194E+00
 -2.27063150E-03  7.61250390E+00 -1.65578969E+00 -1.48038006E+00  8.87586148E+00
  5.25333417E-01 -1.03557334E+00  4.14918481E-01  2.73650933E+00 -4.43165718E-01
 -8.98454717E-02  5.63045780E+00 -1.46097418E+00 -1.39611512E+00 -9.65058852E-02
  8.19270428E-02 -1.21938055E+00 -6.51795036E-01  3.33313239E+00 -2.00232141E+00
 -1.45252181E+00  6.19527044E+00  4.76953266E-01 -2.40940726E+00 -1.48668436E+00
  4.02733821E-01 -5.07456060E+00 -3.04924946E+00 -4.41836936E+00  1.70824147E-01
 -1.12669994E+00 -7.31292662E+00  3.82994109E-01 -2.13825710E+00 -1.15436340E+00
 -4.93637310E+00 -5.39061989E+00  3.04725141E+00 -5.71707358E+00 -3.84391452E+00
 -5.35934536E-01 -7.22949519E+00 -1.49605159E+00  2.93905149E+00  1.55217704E+00
  3.45448770E+00 -1.55214771E+00  5.71199799E+00 -3.86134710E+00 -1.40272171E+00
  7.22966507E+00  4.46182614E-01  2.43537325E+00  6.81058810E+00 -1.96339447E+00
 -8.91627246E+00 -1.70508236E+00 -1.12689263E+00 -8.49786039E+00  2.82125865E+00
 -1.35765404E+00 -7.42523743E+00  2.51596811E-01 -4.95370469E+00  1.23864337E-01
 -8.67034503E-01  7.96665364E+00 -4.27162989E+00 -6.22977154E-02  7.12470878E+00
 -2.53337582E+00 -4.21341318E+00  6.42728890E+00  6.06018728E+00  2.84450261E+00
  3.46642109E+00  5.52079418E+00 -5.01311706E-01  3.64290312E+00  4.96219415E+00
  2.79160842E+00 -1.16927504E+00  3.60370241E+00 -3.83067084E-01 -8.61751179E-01
  6.85653334E+00 -2.10882048E+00 -3.33470383E+00  9.19765261E+00  1.89582440E+00
 -2.53075513E+00  9.74406511E+00  9.16950935E-01  7.81801575E-01  7.40358162E+00
 -3.10173768E+00 -3.78849576E-02
Int Atom Types                             I   N=          34
           0           0           0           0           0           0
           0           0           0           0           0           0
           0           0           0           0           0           0
           0           0           0           0           0           0
           0           0           0           0           0           0
           0           0           0           0
Force Field                                I                0
MM charges                                 R   N=          34
  0.00000000E+00  0.00000000E+00  0.00000000E+00  0.00000000E+00  0.00000000E+00
  0.00000000E+00  0.00000000E+00  0.00000000E+00  0.00000000E+00  0.00000000E+00
  0.00000000E+00  0.00000000E+00  0.00000000E+00  0.00000000E+00  0.00000000E+00
  0.00000000E+00  0.00000000E+00  0.00000000E+00  0.00000000E+00  0.00000000E+00
  0.00000000E+00  0.00000000E+00  0.00000000E+00  0.00000000E+00  0.00000000E+00
  0.00000000E+00  0.00000000E+00  0.00000000E+00  0.00000000E+00  0.00000000E+00
  0.00000000E+00  0.00000000E+00  0.00000000E+00  0.00000000E+00
Integer atomic weights                     I   N=          34
          12          12          12          12          16          28
          27          16          28          16          28          16
          28           1           1           1           1           1
           1           1           1           1           1           1
           1           1           1           1           1           1
           1           1           1           1
Real atomic weights                        R   N=          34
  1.20000000E+01  1.20000000E+01  1.20000000E+01  1.20000000E+01  1.59949146E+01
  2.79769284E+01  2.69815413E+01  1.59949146E+01  2.79769284E+01  1.59949146E+01
  2.79769284E+01  1.59949146E+01  2.79769284E+01  1.00782504E+00  1.00782504E+00
  1.00782504E+00  1.00782504E+00  1.00782504E+00  1.00782504E+00  1.00782504E+00
  1.00782504E+00  1.00782504E+00  1.00782504E+00  1.00782504E+00  1.00782504E+00
  1.00782504E+00  1.00782504E+00  1.00782504E+00  1.00782504E+00  1.00782504E+00
  1.00782504E+00  1.00782504E+00  1.00782504E+00  1.00782504E+00
Atom residue info                          I   N=          34
           0           0           0           0           0           0
           0           0           0           0           0           0
           0           0           0           0           0           0
           0           0           0           0           0           0
           0           0           0           0           0           0
           0           0           0           0
Atom fragment info                         I   N=          34
           0           0           0           0           0           0
           0           0           0           0           0           0
           0           0           0           0           0           0
           0           0           0           0           0           0
           0           0           0           0           0           0
           0           0           0           0
Atom residue num                           I   N=          34
           0           0           0           0           0           0
           0           0           0           0           0           0
           0           0           0           0           0           0
           0           0           0           0           0           0
           0           0           0           0           0           0
           0           0           0           0
Nuclear spins                              I   N=          34
           0           0           0           0           0           0
           5           0           0           0           0           0
           0           1           1           1           1           1
           1           1           1           1           1           1
           1           1           1           1           1           1
           1           1           1           1
Nuclear ZEff                               R   N=          34
 -3.60000000E+00 -3.60000000E+00 -3.60000000E+00 -3.60000000E+00 -5.60000000E+00
 -1.22500000E+01 -1.15300000E+01 -5.60000000E+00 -1.22500000E+01 -5.60000000E+00
 -1.22500000E+01 -5.60000000E+00 -1.22500000E+01 -1.00000000E+00 -1.00000000E+00
 -1.00000000E+00 -1.00000000E+00 -1.00000000E+00 -1.00000000E+00 -1.00000000E+00
 -1.00000000E+00 -1.00000000E+00 -1.00000000E+00 -1.00000000E+00 -1.00000000E+00
 -1.00000000E+00 -1.00000000E+00 -1.00000000E+00 -1.00000000E+00 -1.00000000E+00
 -1.00000000E+00 -1.00000000E+00 -1.00000000E+00 -1.00000000E+00
Nuclear QMom                               R   N=          34
  0.00000000E+00  0.00000000E+00  0.00000000E+00  0.00000000E+00  0.00000000E+00
  0.00000000E+00  1.46600000E+01  0.00000000E+00  0.00000000E+00  0.00000000E+00
  0.00000000E+00  0.00000000E+00  0.00000000E+00  0.00000000E+00  0.00000000E+00
  0.00000000E+00  0.00000000E+00  0.00000000E+00  0.00000000E+00  0.00000000E+00
  0.00000000E+00  0.00000000E+00  0.00000000E+00  0.00000000E+00  0.00000000E+00
  0.00000000E+00  0.00000000E+00  0.00000000E+00  0.00000000E+00  0.00000000E+00
  0.00000000E+00  0.00000000E+00  0.00000000E+00  0.00000000E+00
Nuclear GFac                               R   N=          34
  0.00000000E+00  0.00000000E+00  0.00000000E+00  0.00000000E+00  0.00000000E+00
  0.00000000E+00  3.64150400E+00  0.00000000E+00  0.00000000E+00  0.00000000E+00
  0.00000000E+00  0.00000000E+00  0.00000000E+00  2.79284600E+00  2.79284600E+00
  2.79284600E+00  2.79284600E+00  2.79284600E+00  2.79284600E+00  2.79284600E+00
  2.79284600E+00  2.79284600E+00  2.79284600E+00  2.79284600E+00  2.79284600E+00
  2.79284600E+00  2.79284600E+00  2.79284600E+00  2.79284600E+00  2.79284600E+00
  2.79284600E+00  2.79284600E+00  2.79284600E+00  2.79284600E+00
MicOpt                                     I   N=          34
          -1          -1          -1          -1          -1          -1
          -1          -1          -1          -1          -1          -1
          -1          -1          -1          -1          -1          -1
          -1          -1          -1          -1          -1          -1
          -1          -1          -1          -1          -1          -1
          -1          -1          -1          -1
Constraint Structure                       R   N=         102
  4.89236828E+00  1.27891943E+00  2.79901326E+00  4.71007460E+00  1.13085194E+00
 -2.27063150E-03  7.61250390E+00 -1.65578969E+00 -1.48038006E+00  8.87586148E+00
  5.25333417E-01 -1.03557334E+00  4.14918481E-01  2.73650933E+00 -4.43165718E-01
 -8.98454717E-02  5.63045780E+00 -1.46097418E+00 -1.39611512E+00 -9.65058852E-02
  8.19270428E-02 -1.21938055E+00 -6.51795036E-01  3.33313239E+00 -2.00232141E+00
 -1.45252181E+00  6.19527044E+00  4.76953266E-01 -2.40940726E+00 -1.48668436E+00
  4.02733821E-01 -5.07456060E+00 -3.04924946E+00 -4.41836936E+00  1.70824147E-01
 -1.12669994E+00 -7.31292662E+00  3.82994109E-01 -2.13825710E+00 -1.15436340E+00
 -4.93637310E+00 -5.39061989E+00  3.04725141E+00 -5.71707358E+00 -3.84391452E+00
 -5.35934536E-01 -7.22949519E+00 -1.49605159E+00  2.93905149E+00  1.55217704E+00
  3.45448770E+00 -1.55214771E+00  5.71199799E+00 -3.86134710E+00 -1.40272171E+00
  7.22966507E+00  4.46182614E-01  2.43537325E+00  6.81058810E+00 -1.96339447E+00
 -8.91627246E+00 -1.70508236E+00 -1.12689263E+00 -8.49786039E+00  2.82125865E+00
 -1.35765404E+00 -7.42523743E+00  2.51596811E-01 -4.95370469E+00  1.23864337E-01
 -8.67034503E-01  7.96665364E+00 -4.27162989E+00 -6.22977154E-02  7.12470878E+00
 -2.53337582E+00 -4.21341318E+00  6.42728890E+00  6.06018728E+00  2.84450261E+00
  3.46642109E+00  5.52079418E+00 -5.01311706E-01  3.64290312E+00  4.96219415E+00
  2.79160842E+00 -1.16927504E+00  3.60370241E+00 -3.83067084E-01 -8.61751179E-01
  6.85653334E+00 -2.10882048E+00 -3.33470383E+00  9.19765261E+00  1.89582440E+00
 -2.53075513E+00  9.74406511E+00  9.16950935E-01  7.81801575E-01  7.40358162E+00
 -3.10173768E+00 -3.78849576E-02
ONIOM Charges                              I   N=          16
           0           0           0           0           0           0
           0           0           0           0           0           0
           0           0           0           0
ONIOM Multiplicities                       I   N=          16
           1           0           0           0           0           0
           0           0           0           0           0           0
           0           0           0           0
Atom Layers                                I   N=          34
           1           1           1           1           1           1
           1           1           1           1           1           1
           1           1           1           1           1           1
           1           1           1           1           1           1
           1           1           1           1           1           1
           1           1           1           1
Atom Modifiers                             I   N=          34
           0           0           0           0           0           0
           0           0           0           0           0           0
           0           0           0           0           0           0
           0           0           0           0           0           0
           0           0           0           0           0           0
           0           0           0           0
Int Atom Modified Types                    I   N=          34
           0           0           0           0           0           0
           0           0           0           0           0           0
           0           0           0           0           0           0
           0           0           0           0           0           0
           0           0           0           0           0           0
           0           0           0           0
Link Atoms                                 I   N=          34
           0           0           0           0           0           0
           0           0           0           0           0           0
           0           0           0           0           0           0
           0           0           0           0           0           0
           0           0           0           0           0           0
           0           0           0           0
Atom Modified MM Charges                   R   N=          34
  0.00000000E+00  0.00000000E+00  0.00000000E+00  0.00000000E+00  0.00000000E+00
  0.00000000E+00  0.00000000E+00  0.00000000E+00  0.00000000E+00  0.00000000E+00
  0.00000000E+00  0.00000000E+00  0.00000000E+00  0.00000000E+00  0.00000000E+00
  0.00000000E+00  0.00000000E+00  0.00000000E+00  0.00000000E+00  0.00000000E+00
  0.00000000E+00  0.00000000E+00  0.00000000E+00  0.00000000E+00  0.00000000E+00
  0.00000000E+00  0.00000000E+00  0.00000000E+00  0.00000000E+00  0.00000000E+00
  0.00000000E+00  0.00000000E+00  0.00000000E+00  0.00000000E+00
Link Distances                             R   N=         136
  0.00000000E+00  0.00000000E+00  0.00000000E+00  0.00000000E+00  0.00000000E+00
  0.00000000E+00  0.00000000E+00  0.00000000E+00  0.00000000E+00  0.00000000E+00
  0.00000000E+00  0.00000000E+00  0.00000000E+00  0.00000000E+00  0.00000000E+00
  0.00000000E+00  0.00000000E+00  0.00000000E+00  0.00000000E+00  0.00000000E+00
  0.00000000E+00  0.00000000E+00  0.00000000E+00  0.00000000E+00  0.00000000E+00
  0.00000000E+00  0.00000000E+00  0.00000000E+00  0.00000000E+00  0.00000000E+00
  0.00000000E+00  0.00000000E+00  0.00000000E+00  0.00000000E+00  0.00000000E+00
  0.00000000E+00  0.00000000E+00  0.00000000E+00  0.00000000E+00  0.00000000E+00
  0.00000000E+00  0.00000000E+00  0.00000000E+00  0.00000000E+00  0.00000000E+00
  0.00000000E+00  0.00000000E+00  0.00000000E+00  0.00000000E+00  0.00000000E+00
  0.00000000E+00  0.00000000E+00  0.00000000E+00  0.00000000E+00  0.00000000E+00
  0.00000000E+00  0.00000000E+00  0.00000000E+00  0.00000000E+00  0.00000000E+00
  0.00000000E+00  0.00000000E+00  0.00000000E+00  0.00000000E+00  0.00000000E+00
  0.00000000E+00  0.00000000E+00  0.00000000E+00  0.00000000E+00  0.00000000E+00
  0.00000000E+00  0.00000000E+00  0.00000000E+00  0.00000000E+00  0.00000000E+00
  0.00000000E+00  0.00000000E+00  0.00000000E+00  0.00000000E+00  0.00000000E+00
  0.00000000E+00  0.00000000E+00  0.00000000E+00  0.00000000E+00  0.00000000E+00
  0.00000000E+00  0.00000000E+00  0.00000000E+00  0.00000000E+00  0.00000000E+00
  0.00000000E+00  0.00000000E+00  0.00000000E+00  0.00000000E+00  0.00000000E+00
  0.00000000E+00  0.00000000E+00  0.00000000E+00  0.00000000E+00  0.00000000E+00
  0.00000000E+00  0.00000000E+00  0.00000000E+00  0.00000000E+00  0.00000000E+00
  0.00000000E+00  0.00000000E+00  0.00000000E+00  0.00000000E+00  0.00000000E+00
  0.00000000E+00  0.00000000E+00  0.00000000E+00  0.00000000E+00  0.00000000E+00
  0.00000000E+00  0.00000000E+00  0.00000000E+00  0.00000000E+00  0.00000000E+00
  0.00000000E+00  0.00000000E+00  0.00000000E+00  0.00000000E+00  0.00000000E+00
  0.00000000E+00  0.00000000E+00  0.00000000E+00  0.00000000E+00  0.00000000E+00
  0.00000000E+00  0.00000000E+00  0.00000000E+00  0.00000000E+00  0.00000000E+00
  0.00000000E+00
MxBond                                     I                4
NBond                                      I   N=          34
           4           3           3           3           2           4
           4           2           4           2           4           2
           4           1           1           1           1           1
           1           1           1           1           1           1
           1           1           1           1           1           1
           1           1           1           1
IBond                                      I   N=         136
           2          17          27          28           1          29
          30           0           4          31          34           0
           3          32          33           0           6           7
           0           0           5          18          19          20
           5           8          10          12           7           9
           0           0           8          24          25          26
           7          11           0           0          10          14
          15          16           7          13           0           0
          12          21          22          23          11           0
           0           0          11           0           0           0
          11           0           0           0           1           0
           0           0           6           0           0           0
           6           0           0           0           6           0
           0           0          13           0           0           0
          13           0           0           0          13           0
           0           0           9           0           0           0
           9           0           0           0           9           0
           0           0           1           0           0           0
           1           0           0           0           2           0
           0           0           2           0           0           0
           3           0           0           0           4           0
           0           0           4           0           0           0
           3           0           0           0
RBond                                      R   N=         136
  1.00000000E+00  1.00000000E+00  1.00000000E+00  1.00000000E+00  1.00000000E+00
  1.00000000E+00  1.00000000E+00  0.00000000E+00  2.00000000E+00  1.00000000E+00
  1.00000000E+00  0.00000000E+00  2.00000000E+00  1.00000000E+00  1.00000000E+00
  0.00000000E+00  1.00000000E+00  1.00000000E+00  0.00000000E+00  0.00000000E+00
  1.00000000E+00  1.00000000E+00  1.00000000E+00  1.00000000E+00  1.00000000E+00
  1.00000000E+00  1.00000000E+00  1.00000000E+00  1.00000000E+00  1.00000000E+00
  0.00000000E+00  0.00000000E+00  1.00000000E+00  1.00000000E+00  1.00000000E+00
  1.00000000E+00  1.00000000E+00  1.00000000E+00  0.00000000E+00  0.00000000E+00
  1.00000000E+00  1.00000000E+00  1.00000000E+00  1.00000000E+00  1.00000000E+00
  1.00000000E+00  0.00000000E+00  0.00000000E+00  1.00000000E+00  1.00000000E+00
  1.00000000E+00  1.00000000E+00  1.00000000E+00  0.00000000E+00  0.00000000E+00
  0.00000000E+00  1.00000000E+00  0.00000000E+00  0.00000000E+00  0.00000000E+00
  1.00000000E+00  0.00000000E+00  0.00000000E+00  0.00000000E+00  1.00000000E+00
  0.00000000E+00  0.00000000E+00  0.00000000E+00  1.00000000E+00  0.00000000E+00
  0.00000000E+00  0.00000000E+00  1.00000000E+00  0.00000000E+00  0.00000000E+00
  0.00000000E+00  1.00000000E+00  0.00000000E+00  0.00000000E+00  0.00000000E+00
  1.00000000E+00  0.00000000E+00  0.00000000E+00  0.00000000E+00  1.00000000E+00
  0.00000000E+00  0.00000000E+00  0.00000000E+00  1.00000000E+00  0.00000000E+00
  0.00000000E+00  0.00000000E+00  1.00000000E+00  0.00000000E+00  0.00000000E+00
  0.00000000E+00  1.00000000E+00  0.00000000E+00  0.00000000E+00  0.00000000E+00
  1.00000000E+00  0.00000000E+00  0.00000000E+00  0.00000000E+00  1.00000000E+00
  0.00000000E+00  0.00000000E+00  0.00000000E+00  1.00000000E+00  0.00000000E+00
  0.00000000E+00  0.00000000E+00  1.00000000E+00  0.00000000E+00  0.00000000E+00
  0.00000000E+00  1.00000000E+00  0.00000000E+00  0.00000000E+00  0.00000000E+00
  1.00000000E+00  0.00000000E+00  0.00000000E+00  0.00000000E+00  1.00000000E+00
  0.00000000E+00  0.00000000E+00  0.00000000E+00  1.00000000E+00  0.00000000E+00
  0.00000000E+00  0.00000000E+00  1.00000000E+00  0.00000000E+00  0.00000000E+00
  0.00000000E+00
Shell types                                I   N=         112
           0          -1          -1          -1           2           0
          -1          -1          -1           2           0          -1
          -1          -1           2           0          -1          -1
          -1           2           0          -1          -1          -1
           2           0          -1          -1          -1          -1
           2           0          -1          -1          -1          -1
           2           0          -1          -1          -1           2
           0          -1          -1          -1          -1           2
           0          -1          -1          -1           2           0
          -1          -1          -1          -1           2           0
          -1          -1          -1           2           0          -1
          -1          -1          -1           2           0           0
           0           0           0           0           0           0
           0           0           0           0           0           0
           0           0           0           0           0           0
           0           0           0           0           0           0
           0           0           0           0           0           0
           0           0           0           0           0           0
           0           0           0           0
Number of primitives per shell             I   N=         112
           6           3           1           1           1           6
           3           1           1           1           6           3
           1           1           1           6           3           1
           1           1           6           3           1           1
           1           6           6           3           1           1
           1           6           6           3           1           1
           1           6           3           1           1           1
           6           6           3           1           1           1
           6           3           1           1           1           6
           6           3           1           1           1           6
           3           1           1           1           6           6
           3           1           1           1           3           1
           3           1           3           1           3           1
           3           1           3           1           3           1
           3           1           3           1           3           1
           3           1           3           1           3           1
           3           1           3           1           3           1
           3           1           3           1           3           1
           3           1           3           1
Shell to atom map                          I   N=         112
           1           1           1           1           1           2
           2           2           2           2           3           3
           3           3           3           4           4           4
           4           4           5           5           5           5
           5           6           6           6           6           6
           6           7           7           7           7           7
           7           8           8           8           8           8
           9           9           9           9           9           9
          10          10          10          10          10          11
          11          11          11          11          11          12
          12          12          12          12          13          13
          13          13          13          13          14          14
          15          15          16          16          17          17
          18          18          19          19          20          20
          21          21          22          22          23          23
          24          24          25          25          26          26
          27          27          28          28          29          29
          30          30          31          31          32          32
          33          33          34          34
Primitive exponents                        R   N=         270
  3.04752488E+03  4.57369518E+02  1.03948685E+02  2.92101553E+01  9.28666296E+00
  3.16392696E+00  7.86827235E+00  1.88128854E+00  5.44249258E-01  1.68714478E-01
  4.38000000E-02  8.00000000E-01  3.04752488E+03  4.57369518E+02  1.03948685E+02
  2.92101553E+01  9.28666296E+00  3.16392696E+00  7.86827235E+00  1.88128854E+00
  5.44249258E-01  1.68714478E-01  4.38000000E-02  8.00000000E-01  3.04752488E+03
  4.57369518E+02  1.03948685E+02  2.92101553E+01  9.28666296E+00  3.16392696E+00
  7.86827235E+00  1.88128854E+00  5.44249258E-01  1.68714478E-01  4.38000000E-02
  8.00000000E-01  3.04752488E+03  4.57369518E+02  1.03948685E+02  2.92101553E+01
  9.28666296E+00  3.16392696E+00  7.86827235E+00  1.88128854E+00  5.44249258E-01
  1.68714478E-01  4.38000000E-02  8.00000000E-01  5.48467166E+03  8.25234946E+02
  1.88046958E+02  5.29645000E+01  1.68975704E+01  5.79963534E+00  1.55396162E+01
  3.59993359E+00  1.01376175E+00  2.70005823E-01  8.45000000E-02  8.00000000E-01
  1.61159000E+04  2.42558000E+03  5.53867000E+02  1.56340000E+02  5.00683000E+01
  1.70178000E+01  2.92718000E+02  6.98731000E+01  2.23363000E+01  8.15039000E+00
  3.13458000E+00  1.22543000E+00  1.72738000E+00  5.72922000E-01  2.22192000E-01
  7.78369000E-02  3.31000000E-02  4.50000000E-01  1.39831000E+04  2.09875000E+03
  4.77705000E+02  1.34360000E+02  4.28709000E+01  1.45189000E+01  2.39668000E+02
  5.74419000E+01  1.82859000E+01  6.59914000E+00  2.49049000E+00  9.44545000E-01
  1.27790000E+00  3.97590000E-01  1.60095000E-01  5.56577000E-02  3.18000000E-02
  3.25000000E-01  5.48467166E+03  8.25234946E+02  1.88046958E+02  5.29645000E+01
  1.68975704E+01  5.79963534E+00  1.55396162E+01  3.59993359E+00  1.01376175E+00
  2.70005823E-01  8.45000000E-02  8.00000000E-01  1.61159000E+04  2.42558000E+03