Optimaliseren react 5Tetheen plus etheen stepwize deel2                 
Freq      RB3LYP                                                      6-31+G(d)           
Number of atoms                            I               34
Charge                                     I                0
Multiplicity                               I                1
Number of electrons                        I              146
Number of alpha electrons                  I               73
Number of beta electrons                   I               73
Number of basis functions                  I              309
Number of independant functions            I              309
Number of point charges in /Mol/           I                0
Number of translation vectors              I                0
Info1-9                                    I   N=           9
         141         140        1002           0           0         100
           6          18        -501
Num ILSW                                   I              100
ILSW                                       I   N=         100
           0           1           0           0           2           0
           0           0           0           0         402      200000
           0           0           0           0           0           0
           0      800000           0           0           1           0
           1           0           0           0     1000000           0
           0           0      100000           0          -1           0
           0           0           0           0           0           0
           0           0           0           1           0           0
           0           0           1      720000      810000           0
           0           0           0           0           0           0
           0           0           0           0           0           0
           0           0           0           0           0           0
           0           0           0           0           0           0
           0           0           0           0           0           0
           0           0           0           0           0           0
           0           0           0           0           0           0
           0           0           0           0
Number of contracted shells                I              112
Highest angular momentum                   I                2
Largest degree of contraction              I                6
Number of primitive shells                 I              270
Pure/Cartesian d shells                    I                1
Pure/Cartesian f shells                    I                0
Virial Ratio                               R      2.005385049084025E+00
SCF Energy                                 R     -1.866706767208883E+03
Total Energy                               R     -1.866706767208883E+03
RMS Force                                  R      3.139976442552597E-05
RMS Density                                R      5.542836148386349E-09
Atomic numbers                             I   N=          34
           6           6           8          14          13           8
          14           8          14           8          14           6
           6           1           1           1           1           1
           1           1           1           1           1           1
           1           1           1           1           1           1
           1           1           1           1
Nuclear charges                            R   N=          34
  6.00000000E+00  6.00000000E+00  8.00000000E+00  1.40000000E+01  1.30000000E+01
  8.00000000E+00  1.40000000E+01  8.00000000E+00  1.40000000E+01  8.00000000E+00
  1.40000000E+01  6.00000000E+00  6.00000000E+00  1.00000000E+00  1.00000000E+00
  1.00000000E+00  1.00000000E+00  1.00000000E+00  1.00000000E+00  1.00000000E+00
  1.00000000E+00  1.00000000E+00  1.00000000E+00  1.00000000E+00  1.00000000E+00
  1.00000000E+00  1.00000000E+00  1.00000000E+00  1.00000000E+00  1.00000000E+00
  1.00000000E+00  1.00000000E+00  1.00000000E+00  1.00000000E+00
Current cartesian coordinates              R   N=         102
  3.23409514E+00  2.90567468E+00  3.77373059E+00  2.97263293E+00  2.22504409E+00
  1.00256739E+00  3.12276358E-01  2.33867025E+00  1.80448458E-01 -1.10050480E+00
  5.15505860E+00 -7.10736219E-01 -1.58182419E+00 -7.59832565E-01 -9.15202251E-02
  1.01919283E-01 -2.49574069E+00 -2.25494766E+00  1.42726454E+00 -4.30936771E+00
 -4.36522719E+00 -4.28844419E+00  7.54976244E-01 -1.13915940E+00 -7.23134104E+00
  9.77605955E-01 -2.09642459E+00 -1.61092035E+00 -1.97081836E+00  2.91720954E+00
 -1.94187009E+00 -3.40668997E+00  5.62579168E+00  9.67119166E+00 -8.80919320E-01
 -6.18493195E-01  1.06366090E+01  1.44009567E+00 -8.39479695E-01  1.89396236E-01
 -4.03164870E+00 -6.87872340E+00  4.14796700E+00 -3.62076500E+00 -4.66439169E+00
  1.30297400E+00 -7.01988690E+00 -3.61610810E+00  2.11921306E+00  1.62613280E+00
  4.95304828E+00 -1.79638454E+00  5.05014549E+00 -3.40587617E+00 -3.24084590E+00
  5.72586442E+00  9.77768560E-01  9.48258711E-01  7.03308796E+00 -3.29764108E-01
 -9.02525005E+00  1.24265659E-01 -1.03548848E-01 -7.80366312E+00  3.66740388E+00
 -2.70340005E+00 -7.67698810E+00 -5.62777266E-01 -4.40884689E+00 -3.43735104E-01
 -2.15206474E+00  7.58294201E+00 -4.61348728E+00 -3.32741642E+00  6.50946357E+00
 -1.14533479E+00 -6.10215945E+00  5.46286072E+00  2.63031324E+00  4.85281583E+00
  4.13793636E+00  5.22535278E+00  2.74159831E+00  4.32305161E+00  4.05443589E+00
  3.49147742E+00 -2.19487955E-01  3.58078108E+00  2.92393230E-01  6.18709705E-01
  8.58922686E+00 -1.75558781E+00 -2.13207799E+00  1.03868110E+01  2.55808741E+00
 -2.54701981E+00  1.17363475E+01  2.30522859E+00  6.66930740E-01  9.94282399E+00
 -2.00693787E+00  1.08028663E+00
Int Atom Types                             I   N=          34
           0           0           0           0           0           0
           0           0           0           0           0           0
           0           0           0           0           0           0
           0           0           0           0           0           0
           0           0           0           0           0           0
           0           0           0           0
Force Field                                I                0
MM charges                                 R   N=          34
  0.00000000E+00  0.00000000E+00  0.00000000E+00  0.00000000E+00  0.00000000E+00
  0.00000000E+00  0.00000000E+00  0.00000000E+00  0.00000000E+00  0.00000000E+00
  0.00000000E+00  0.00000000E+00  0.00000000E+00  0.00000000E+00  0.00000000E+00
  0.00000000E+00  0.00000000E+00  0.00000000E+00  0.00000000E+00  0.00000000E+00
  0.00000000E+00  0.00000000E+00  0.00000000E+00  0.00000000E+00  0.00000000E+00
  0.00000000E+00  0.00000000E+00  0.00000000E+00  0.00000000E+00  0.00000000E+00
  0.00000000E+00  0.00000000E+00  0.00000000E+00  0.00000000E+00
Integer atomic weights                     I   N=          34
          12          12          16          28          27          16
          28          16          28          16          28          12
          12           1           1           1           1           1
           1           1           1           1           1           1
           1           1           1           1           1           1
           1           1           1           1
Real atomic weights                        R   N=          34
  1.20000000E+01  1.20000000E+01  1.59949146E+01  2.79769284E+01  2.69815413E+01
  1.59949146E+01  2.79769284E+01  1.59949146E+01  2.79769284E+01  1.59949146E+01
  2.79769284E+01  1.20000000E+01  1.20000000E+01  1.00782504E+00  1.00782504E+00
  1.00782504E+00  1.00782504E+00  1.00782504E+00  1.00782504E+00  1.00782504E+00
  1.00782504E+00  1.00782504E+00  1.00782504E+00  1.00782504E+00  1.00782504E+00
  1.00782504E+00  1.00782504E+00  1.00782504E+00  1.00782504E+00  1.00782504E+00
  1.00782504E+00  1.00782504E+00  1.00782504E+00  1.00782504E+00
Atom residue info                          I   N=          34
           0           0           0           0           0           0
           0           0           0           0           0           0
           0           0           0           0           0           0
           0           0           0           0           0           0
           0           0           0           0           0           0
           0           0           0           0
Atom fragment info                         I   N=          34
           0           0           0           0           0           0
           0           0           0           0           0           0
           0           0           0           0           0           0
           0           0           0           0           0           0
           0           0           0           0           0           0
           0           0           0           0
Atom residue num                           I   N=          34
           0           0           0           0           0           0
           0           0           0           0           0           0
           0           0           0           0           0           0
           0           0           0           0           0           0
           0           0           0           0           0           0
           0           0           0           0
Nuclear spins                              I   N=          34
           0           0           0           0           5           0
           0           0           0           0           0           0
           0           1           1           1           1           1
           1           1           1           1           1           1
           1           1           1           1           1           1
           1           1           1           1
Nuclear ZEff                               R   N=          34
 -3.60000000E+00 -3.60000000E+00 -5.60000000E+00 -1.22500000E+01 -1.15300000E+01
 -5.60000000E+00 -1.22500000E+01 -5.60000000E+00 -1.22500000E+01 -5.60000000E+00
 -1.22500000E+01 -3.60000000E+00 -3.60000000E+00 -1.00000000E+00 -1.00000000E+00
 -1.00000000E+00 -1.00000000E+00 -1.00000000E+00 -1.00000000E+00 -1.00000000E+00
 -1.00000000E+00 -1.00000000E+00 -1.00000000E+00 -1.00000000E+00 -1.00000000E+00
 -1.00000000E+00 -1.00000000E+00 -1.00000000E+00 -1.00000000E+00 -1.00000000E+00
 -1.00000000E+00 -1.00000000E+00 -1.00000000E+00 -1.00000000E+00
Nuclear QMom                               R   N=          34
  0.00000000E+00  0.00000000E+00  0.00000000E+00  0.00000000E+00  1.46600000E+01
  0.00000000E+00  0.00000000E+00  0.00000000E+00  0.00000000E+00  0.00000000E+00
  0.00000000E+00  0.00000000E+00  0.00000000E+00  0.00000000E+00  0.00000000E+00
  0.00000000E+00  0.00000000E+00  0.00000000E+00  0.00000000E+00  0.00000000E+00
  0.00000000E+00  0.00000000E+00  0.00000000E+00  0.00000000E+00  0.00000000E+00
  0.00000000E+00  0.00000000E+00  0.00000000E+00  0.00000000E+00  0.00000000E+00
  0.00000000E+00  0.00000000E+00  0.00000000E+00  0.00000000E+00
Nuclear GFac                               R   N=          34
  0.00000000E+00  0.00000000E+00  0.00000000E+00  0.00000000E+00  3.64150400E+00
  0.00000000E+00  0.00000000E+00  0.00000000E+00  0.00000000E+00  0.00000000E+00
  0.00000000E+00  0.00000000E+00  0.00000000E+00  2.79284600E+00  2.79284600E+00
  2.79284600E+00  2.79284600E+00  2.79284600E+00  2.79284600E+00  2.79284600E+00
  2.79284600E+00  2.79284600E+00  2.79284600E+00  2.79284600E+00  2.79284600E+00
  2.79284600E+00  2.79284600E+00  2.79284600E+00  2.79284600E+00  2.79284600E+00
  2.79284600E+00  2.79284600E+00  2.79284600E+00  2.79284600E+00
MicOpt                                     I   N=          34
          -1          -1          -1          -1          -1          -1
          -1          -1          -1          -1          -1          -1
          -1          -1          -1          -1          -1          -1
          -1          -1          -1          -1          -1          -1
          -1          -1          -1          -1          -1          -1
          -1          -1          -1          -1
Constraint Structure                       R   N=         102
  3.23409514E+00  2.90567468E+00  3.77373059E+00  2.97263293E+00  2.22504409E+00
  1.00256739E+00  3.12276358E-01  2.33867025E+00  1.80448458E-01 -1.10050480E+00
  5.15505860E+00 -7.10736219E-01 -1.58182419E+00 -7.59832565E-01 -9.15202251E-02
  1.01919283E-01 -2.49574069E+00 -2.25494766E+00  1.42726454E+00 -4.30936771E+00
 -4.36522719E+00 -4.28844419E+00  7.54976244E-01 -1.13915940E+00 -7.23134104E+00
  9.77605955E-01 -2.09642459E+00 -1.61092035E+00 -1.97081836E+00  2.91720954E+00
 -1.94187009E+00 -3.40668997E+00  5.62579168E+00  9.67119166E+00 -8.80919320E-01
 -6.18493195E-01  1.06366090E+01  1.44009567E+00 -8.39479695E-01  1.89396236E-01
 -4.03164870E+00 -6.87872340E+00  4.14796700E+00 -3.62076500E+00 -4.66439169E+00
  1.30297400E+00 -7.01988690E+00 -3.61610810E+00  2.11921306E+00  1.62613280E+00
  4.95304828E+00 -1.79638454E+00  5.05014549E+00 -3.40587617E+00 -3.24084590E+00
  5.72586442E+00  9.77768560E-01  9.48258711E-01  7.03308796E+00 -3.29764108E-01
 -9.02525005E+00  1.24265659E-01 -1.03548848E-01 -7.80366312E+00  3.66740388E+00
 -2.70340005E+00 -7.67698810E+00 -5.62777266E-01 -4.40884689E+00 -3.43735104E-01
 -2.15206474E+00  7.58294201E+00 -4.61348728E+00 -3.32741642E+00  6.50946357E+00
 -1.14533479E+00 -6.10215945E+00  5.46286072E+00  2.63031324E+00  4.85281583E+00
  4.13793636E+00  5.22535278E+00  2.74159831E+00  4.32305161E+00  4.05443589E+00
  3.49147742E+00 -2.19487955E-01  3.58078108E+00  2.92393230E-01  6.18709705E-01
  8.58922686E+00 -1.75558781E+00 -2.13207799E+00  1.03868110E+01  2.55808741E+00
 -2.54701981E+00  1.17363475E+01  2.30522859E+00  6.66930740E-01  9.94282399E+00
 -2.00693787E+00  1.08028663E+00
ONIOM Charges                              I   N=          16
           0           0           0           0           0           0
           0           0           0           0           0           0
           0           0           0           0
ONIOM Multiplicities                       I   N=          16
           1           0           0           0           0           0
           0           0           0           0           0           0
           0           0           0           0
Atom Layers                                I   N=          34
           0           0           0           0           0           0
           0           0           0           0           0           0
           0           0           0           0           0           0
           0           0           0           0           0           0
           0           0           0           0           0           0
           0           0           0           0
Atom Modifiers                             I   N=          34
           0           0           0           0           0           0
           0           0           0           0           0           0
           0           0           0           0           0           0
           0           0           0           0           0           0
           0           0           0           0           0           0
           0           0           0           0
Int Atom Modified Types                    I   N=          34
           0           0           0           0           0           0
           0           0           0           0           0           0
           0           0           0           0           0           0
           0           0           0           0           0           0
           0           0           0           0           0           0
           0           0           0           0
Link Atoms                                 I   N=          34
           0           0           0           0           0           0
           0           0           0           0           0           0
           0           0           0           0           0           0
           0           0           0           0           0           0
           0           0           0           0           0           0
           0           0           0           0
Atom Modified MM Charges                   R   N=          34
  0.00000000E+00  0.00000000E+00  0.00000000E+00  0.00000000E+00  0.00000000E+00
  0.00000000E+00  0.00000000E+00  0.00000000E+00  0.00000000E+00  0.00000000E+00
  0.00000000E+00  0.00000000E+00  0.00000000E+00  0.00000000E+00  0.00000000E+00
  0.00000000E+00  0.00000000E+00  0.00000000E+00  0.00000000E+00  0.00000000E+00
  0.00000000E+00  0.00000000E+00  0.00000000E+00  0.00000000E+00  0.00000000E+00
  0.00000000E+00  0.00000000E+00  0.00000000E+00  0.00000000E+00  0.00000000E+00
  0.00000000E+00  0.00000000E+00  0.00000000E+00  0.00000000E+00
Link Distances                             R   N=         136
  0.00000000E+00  0.00000000E+00  0.00000000E+00  0.00000000E+00  0.00000000E+00
  0.00000000E+00  0.00000000E+00  0.00000000E+00  0.00000000E+00  0.00000000E+00
  0.00000000E+00  0.00000000E+00  0.00000000E+00  0.00000000E+00  0.00000000E+00
  0.00000000E+00  0.00000000E+00  0.00000000E+00  0.00000000E+00  0.00000000E+00
  0.00000000E+00  0.00000000E+00  0.00000000E+00  0.00000000E+00  0.00000000E+00
  0.00000000E+00  0.00000000E+00  0.00000000E+00  0.00000000E+00  0.00000000E+00
  0.00000000E+00  0.00000000E+00  0.00000000E+00  0.00000000E+00  0.00000000E+00
  0.00000000E+00  0.00000000E+00  0.00000000E+00  0.00000000E+00  0.00000000E+00
  0.00000000E+00  0.00000000E+00  0.00000000E+00  0.00000000E+00  0.00000000E+00
  0.00000000E+00  0.00000000E+00  0.00000000E+00  0.00000000E+00  0.00000000E+00
  0.00000000E+00  0.00000000E+00  0.00000000E+00  0.00000000E+00  0.00000000E+00
  0.00000000E+00  0.00000000E+00  0.00000000E+00  0.00000000E+00  0.00000000E+00
  0.00000000E+00  0.00000000E+00  0.00000000E+00  0.00000000E+00  0.00000000E+00
  0.00000000E+00  0.00000000E+00  0.00000000E+00  0.00000000E+00  0.00000000E+00
  0.00000000E+00  0.00000000E+00  0.00000000E+00  0.00000000E+00  0.00000000E+00
  0.00000000E+00  0.00000000E+00  0.00000000E+00  0.00000000E+00  0.00000000E+00
  0.00000000E+00  0.00000000E+00  0.00000000E+00  0.00000000E+00  0.00000000E+00
  0.00000000E+00  0.00000000E+00  0.00000000E+00  0.00000000E+00  0.00000000E+00
  0.00000000E+00  0.00000000E+00  0.00000000E+00  0.00000000E+00  0.00000000E+00
  0.00000000E+00  0.00000000E+00  0.00000000E+00  0.00000000E+00  0.00000000E+00
  0.00000000E+00  0.00000000E+00  0.00000000E+00  0.00000000E+00  0.00000000E+00
  0.00000000E+00  0.00000000E+00  0.00000000E+00  0.00000000E+00  0.00000000E+00
  0.00000000E+00  0.00000000E+00  0.00000000E+00  0.00000000E+00  0.00000000E+00
  0.00000000E+00  0.00000000E+00  0.00000000E+00  0.00000000E+00  0.00000000E+00
  0.00000000E+00  0.00000000E+00  0.00000000E+00  0.00000000E+00  0.00000000E+00
  0.00000000E+00  0.00000000E+00  0.00000000E+00  0.00000000E+00  0.00000000E+00
  0.00000000E+00  0.00000000E+00  0.00000000E+00  0.00000000E+00  0.00000000E+00
  0.00000000E+00
MxBond                                     I                4
NBond                                      I   N=          34
           4           4           3           4           4           2
           4           2           4           2           4           3
           3           1           1           1           1           1
           1           1           1           1           1           1
           1           1           1           1           1           1
           1           1           1           1
IBond                                      I   N=         136
           2          17          27          28           1           3
          29          30           2           4           5           0
           3          18          19          20           3           6
           8          10           5           7           0           0
           6          14          15          16           5           9
           0           0           8          21          22          23
           5          11           0           0          10          24
          25          26          13          31          34           0
          12          32          33           0           7           0
           0           0           7           0           0           0
           7           0           0           0           1           0
           0           0           4           0           0           0
           4           0           0           0           4           0
           0           0           9           0           0           0
           9           0           0           0           9           0
           0           0          11           0           0           0
          11           0           0           0          11           0
           0           0           1           0           0           0
           1           0           0           0           2           0
           0           0           2           0           0           0
          12           0           0           0          13           0
           0           0          13           0           0           0
          12           0           0           0
RBond                                      R   N=         136
  1.00000000E+00  1.00000000E+00  1.00000000E+00  1.00000000E+00  1.00000000E+00
  1.00000000E+00  1.00000000E+00  1.00000000E+00  1.00000000E+00  1.00000000E+00
  1.00000000E+00  0.00000000E+00  1.00000000E+00  1.00000000E+00  1.00000000E+00
  1.00000000E+00  1.00000000E+00  1.00000000E+00  1.00000000E+00  1.00000000E+00
  1.00000000E+00  1.00000000E+00  0.00000000E+00  0.00000000E+00  1.00000000E+00
  1.00000000E+00  1.00000000E+00  1.00000000E+00  1.00000000E+00  1.00000000E+00
  0.00000000E+00  0.00000000E+00  1.00000000E+00  1.00000000E+00  1.00000000E+00
  1.00000000E+00  1.00000000E+00  1.00000000E+00  0.00000000E+00  0.00000000E+00
  1.00000000E+00  1.00000000E+00  1.00000000E+00  1.00000000E+00  2.00000000E+00
  1.00000000E+00  1.00000000E+00  0.00000000E+00  2.00000000E+00  1.00000000E+00
  1.00000000E+00  0.00000000E+00  1.00000000E+00  0.00000000E+00  0.00000000E+00
  0.00000000E+00  1.00000000E+00  0.00000000E+00  0.00000000E+00  0.00000000E+00
  1.00000000E+00  0.00000000E+00  0.00000000E+00  0.00000000E+00  1.00000000E+00
  0.00000000E+00  0.00000000E+00  0.00000000E+00  1.00000000E+00  0.00000000E+00
  0.00000000E+00  0.00000000E+00  1.00000000E+00  0.00000000E+00  0.00000000E+00
  0.00000000E+00  1.00000000E+00  0.00000000E+00  0.00000000E+00  0.00000000E+00
  1.00000000E+00  0.00000000E+00  0.00000000E+00  0.00000000E+00  1.00000000E+00
  0.00000000E+00  0.00000000E+00  0.00000000E+00  1.00000000E+00  0.00000000E+00
  0.00000000E+00  0.00000000E+00  1.00000000E+00  0.00000000E+00  0.00000000E+00
  0.00000000E+00  1.00000000E+00  0.00000000E+00  0.00000000E+00  0.00000000E+00
  1.00000000E+00  0.00000000E+00  0.00000000E+00  0.00000000E+00  1.00000000E+00
  0.00000000E+00  0.00000000E+00  0.00000000E+00  1.00000000E+00  0.00000000E+00
  0.00000000E+00  0.00000000E+00  1.00000000E+00  0.00000000E+00  0.00000000E+00
  0.00000000E+00  1.00000000E+00  0.00000000E+00  0.00000000E+00  0.00000000E+00
  1.00000000E+00  0.00000000E+00  0.00000000E+00  0.00000000E+00  1.00000000E+00
  0.00000000E+00  0.00000000E+00  0.00000000E+00  1.00000000E+00  0.00000000E+00
  0.00000000E+00  0.00000000E+00  1.00000000E+00  0.00000000E+00  0.00000000E+00
  0.00000000E+00
Shell types                                I   N=         112
           0          -1          -1          -1           2           0
          -1          -1          -1           2           0          -1
          -1          -1           2           0          -1          -1
          -1          -1           2           0          -1          -1
          -1          -1           2           0          -1          -1
          -1           2           0          -1          -1          -1
          -1           2           0          -1          -1          -1
           2           0          -1          -1          -1          -1
           2           0          -1          -1          -1           2
           0          -1          -1          -1          -1           2
           0          -1          -1          -1           2           0
          -1          -1          -1           2           0           0
           0           0           0           0           0           0
           0           0           0           0           0           0
           0           0           0           0           0           0
           0           0           0           0           0           0
           0           0           0           0           0           0
           0           0           0           0           0           0
           0           0           0           0
Number of primitives per shell             I   N=         112
           6           3           1           1           1           6
           3           1           1           1           6           3
           1           1           1           6           6           3
           1           1           1           6           6           3
           1           1           1           6           3           1
           1           1           6           6           3           1
           1           1           6           3           1           1
           1           6           6           3           1           1
           1           6           3           1           1           1
           6           6           3           1           1           1
           6           3           1           1           1           6
           3           1           1           1           3           1
           3           1           3           1           3           1
           3           1           3           1           3           1
           3           1           3           1           3           1
           3           1           3           1           3           1
           3           1           3           1           3           1
           3           1           3           1           3           1
           3           1           3           1
Shell to atom map                          I   N=         112
           1           1           1           1           1           2
           2           2           2           2           3           3
           3           3           3           4           4           4
           4           4           4           5           5           5
           5           5           5           6           6           6
           6           6           7           7           7           7
           7           7           8           8           8           8
           8           9           9           9           9           9
           9          10          10          10          10          10
          11          11          11          11          11          11
          12          12          12          12          12          13
          13          13          13          13          14          14
          15          15          16          16          17          17
          18          18          19          19          20          20
          21          21          22          22          23          23
          24          24          25          25          26          26
          27          27          28          28          29          29
          30          30          31          31          32          32
          33          33          34          34
Primitive exponents                        R   N=         270
  3.04752488E+03  4.57369518E+02  1.03948685E+02  2.92101553E+01  9.28666296E+00
  3.16392696E+00  7.86827235E+00  1.88128854E+00  5.44249258E-01  1.68714478E-01
  4.38000000E-02  8.00000000E-01  3.04752488E+03  4.57369518E+02  1.03948685E+02
  2.92101553E+01  9.28666296E+00  3.16392696E+00  7.86827235E+00  1.88128854E+00
  5.44249258E-01  1.68714478E-01  4.38000000E-02  8.00000000E-01  5.48467166E+03
  8.25234946E+02  1.88046958E+02  5.29645000E+01  1.68975704E+01  5.79963534E+00
  1.55396162E+01  3.59993359E+00  1.01376175E+00  2.70005823E-01  8.45000000E-02
  8.00000000E-01  1.61159000E+04  2.42558000E+03  5.53867000E+02  1.56340000E+02
  5.00683000E+01  1.70178000E+01  2.92718000E+02  6.98731000E+01  2.23363000E+01
  8.15039000E+00  3.13458000E+00  1.22543000E+00  1.72738000E+00  5.72922000E-01
  2.22192000E-01  7.78369000E-02  3.31000000E-02  4.50000000E-01  1.39831000E+04
  2.09875000E+03  4.77705000E+02  1.34360000E+02  4.28709000E+01  1.45189000E+01
  2.39668000E+02  5.74419000E+01  1.82859000E+01  6.59914000E+00  2.49049000E+00
  9.44545000E-01  1.27790000E+00  3.97590000E-01  1.60095000E-01  5.56577000E-02
  3.18000000E-02  3.25000000E-01  5.48467166E+03  8.25234946E+02  1.88046958E+02
  5.29645000E+01  1.68975704E+01  5.79963534E+00  1.55396162E+01  3.59993359E+00
  1.01376175E+00  2.70005823E-01  8.45000000E-02  8.00000000E-01  1.61159000E+04
  2.42558000E+03  5.53867000E+02  1.56340000E+02  5.00683000E+01  1.70178000E+01
  2.92718000E+02  6.98731000E+01  2.23363000E+01  8.15039000E+00  3.13458000E+00
  1.22543000E+00  1.72738000E+00  5.72922000E-01  2.22192000E-01  7.78369000E-02
  3.31000000E-02  4.50000000E-01  5.48467166E+03  8.25234946E+02  1.88046958E+02
  5.29645000E+01  1.68975704E+01  5.79963534E+00  1.55396162E+01  3.59993359E+00