Who cares about the title?                                              
Freq      RHF                                                         3-21G               
Number of atoms                            I                8
Charge                                     I                0
Multiplicity                               I                1
Number of electrons                        I               18
Number of alpha electrons                  I                9
Number of beta electrons                   I                9
Number of basis functions                  I               30
Number of independant functions            I               30
Number of point charges in /Mol/           I                0
Number of translation vectors              I                0
Info1-9                                    I   N=           9
          18          17        1002           0           0         100
           6           1           1
Num ILSW                                   I              100
ILSW                                       I   N=         100
           0           1           0           0           2           0
           0           0           0           0           0     1000000
           0           0           0           0           0           0
           0     1000000           1           0           1           0
           1           1           0           0     1000000           0
           0           0      100000           0          -1           0
           0           0           0           0           0           0
           0           0           0           1           0           0
           0           0           1     1000000     1000000           0
           0           0           0           0           0           0
           0           0           0           0           0           0
           0           0           0           0           0           0
           0           0           0           0           0           0
           0           0           0           0           0           0
           0           0           0           0           0           0
           0           0           0           0           0           0
           0           0           0           0
Number of contracted shells                I               18
Highest angular momentum                   I                1
Largest degree of contraction              I                3
Number of primitive shells                 I               30
Pure/Cartesian d shells                    I                1
Pure/Cartesian f shells                    I                0
Virial Ratio                               R      2.001904359602512E+00
SCF Energy                                 R     -7.879394790684231E+01
Total Energy                               R     -7.879394790684231E+01
RMS Force                                  R      8.672554148755049E-05
RMS Density                                R      4.517212949228790E-10
Atomic numbers                             I   N=           8
           6           6           1           1           1           1
           1           1
Nuclear charges                            R   N=           8
  6.00000000E+00  6.00000000E+00  1.00000000E+00  1.00000000E+00  1.00000000E+00
  1.00000000E+00  1.00000000E+00  1.00000000E+00
Current cartesian coordinates              R   N=          24
  2.83458923E+01  2.83458920E+01  2.68888084E+01  2.83458917E+01  2.83458920E+01
  2.98029756E+01  3.02611807E+01  2.83458920E+01  2.61609560E+01  2.64306033E+01
  2.83458920E+01  3.05308281E+01  2.93035358E+01  2.66872037E+01  3.05308286E+01
  2.93035358E+01  3.00045803E+01  3.05308286E+01  2.73882483E+01  2.66872037E+01
  2.61609554E+01  2.73882483E+01  3.00045803E+01  2.61609554E+01
Int Atom Types                             I   N=           8
           0           0           0           0           0           0
           0           0
Force Field                                I                0
MM charges                                 R   N=           8
  0.00000000E+00  0.00000000E+00  0.00000000E+00  0.00000000E+00  0.00000000E+00
  0.00000000E+00  0.00000000E+00  0.00000000E+00
Integer atomic weights                     I   N=           8
          12          12           1           1           1           1
           1           1
Real atomic weights                        R   N=           8
  1.20000000E+01  1.20000000E+01  1.00782504E+00  1.00782504E+00  1.00782504E+00
  1.00782504E+00  1.00782504E+00  1.00782504E+00
Atom residue info                          I   N=           8
           0           0           0           0           0           0
           0           0
Atom fragment info                         I   N=           8
           0           0           0           0           0           0
           0           0
Atom residue num                           I   N=           8
           0           0           0           0           0           0
           0           0
Nuclear spins                              I   N=           8
           0           0           1           1           1           1
           1           1
Nuclear ZEff                               R   N=           8
 -3.60000000E+00 -3.60000000E+00 -1.00000000E+00 -1.00000000E+00 -1.00000000E+00
 -1.00000000E+00 -1.00000000E+00 -1.00000000E+00
Nuclear QMom                               R   N=           8
  0.00000000E+00  0.00000000E+00  0.00000000E+00  0.00000000E+00  0.00000000E+00
  0.00000000E+00  0.00000000E+00  0.00000000E+00
Nuclear GFac                               R   N=           8
  0.00000000E+00  0.00000000E+00  2.79284600E+00  2.79284600E+00  2.79284600E+00
  2.79284600E+00  2.79284600E+00  2.79284600E+00
MicOpt                                     I   N=           8
          -1          -1          -1          -1          -1          -1
          -1          -1
Constraint Structure                       R   N=          24
  2.83458923E+01  2.83458920E+01  2.68888084E+01  2.83458917E+01  2.83458920E+01
  2.98029756E+01  3.02611807E+01  2.83458920E+01  2.61609560E+01  2.64306033E+01
  2.83458920E+01  3.05308281E+01  2.93035358E+01  2.66872037E+01  3.05308286E+01
  2.93035358E+01  3.00045803E+01  3.05308286E+01  2.73882483E+01  2.66872037E+01
  2.61609554E+01  2.73882483E+01  3.00045803E+01  2.61609554E+01
ONIOM Charges                              I   N=          16
           0           0           0           0           0           0
           0           0           0           0           0           0
           0           0           0           0
ONIOM Multiplicities                       I   N=          16
           1           0           0           0           0           0
           0           0           0           0           0           0
           0           0           0           0
Atom Layers                                I   N=           8
           0           0           0           0           0           0
           0           0
Atom Modifiers                             I   N=           8
           0           0           0           0           0           0
           0           0
Int Atom Modified Types                    I   N=           8
           0           0           0           0           0           0
           0           0
Link Atoms                                 I   N=           8
           0           0           0           0           0           0
           0           0
Atom Modified MM Charges                   R   N=           8
  0.00000000E+00  0.00000000E+00  0.00000000E+00  0.00000000E+00  0.00000000E+00
  0.00000000E+00  0.00000000E+00  0.00000000E+00
Link Distances                             R   N=          32
  0.00000000E+00  0.00000000E+00  0.00000000E+00  0.00000000E+00  0.00000000E+00
  0.00000000E+00  0.00000000E+00  0.00000000E+00  0.00000000E+00  0.00000000E+00
  0.00000000E+00  0.00000000E+00  0.00000000E+00  0.00000000E+00  0.00000000E+00
  0.00000000E+00  0.00000000E+00  0.00000000E+00  0.00000000E+00  0.00000000E+00
  0.00000000E+00  0.00000000E+00  0.00000000E+00  0.00000000E+00  0.00000000E+00
  0.00000000E+00  0.00000000E+00  0.00000000E+00  0.00000000E+00  0.00000000E+00
  0.00000000E+00  0.00000000E+00
MxBond                                     I                4
NBond                                      I   N=           8
           4           4           1           1           1           1
           1           1
IBond                                      I   N=          32
           2           3           7           8           1           4
           5           6           1           0           0           0
           2           0           0           0           2           0
           0           0           2           0           0           0
           1           0           0           0           1           0
           0           0
RBond                                      R   N=          32
  1.00000000E+00  1.00000000E+00  1.00000000E+00  1.00000000E+00  1.00000000E+00
  1.00000000E+00  1.00000000E+00  1.00000000E+00  1.00000000E+00  0.00000000E+00
  0.00000000E+00  0.00000000E+00  1.00000000E+00  0.00000000E+00  0.00000000E+00
  0.00000000E+00  1.00000000E+00  0.00000000E+00  0.00000000E+00  0.00000000E+00
  1.00000000E+00  0.00000000E+00  0.00000000E+00  0.00000000E+00  1.00000000E+00
  0.00000000E+00  0.00000000E+00  0.00000000E+00  1.00000000E+00  0.00000000E+00
  0.00000000E+00  0.00000000E+00
Shell types                                I   N=          18
           0          -1          -1           0          -1          -1
           0           0           0           0           0           0
           0           0           0           0           0           0
Number of primitives per shell             I   N=          18
           3           2           1           3           2           1
           2           1           2           1           2           1
           2           1           2           1           2           1
Shell to atom map                          I   N=          18
           1           1           1           2           2           2
           3           3           4           4           5           5
           6           6           7           7           8           8
Primitive exponents                        R   N=          30
  1.72256000E+02  2.59109000E+01  5.53335000E+00  3.66498000E+00  7.70545000E-01
  1.95857000E-01  1.72256000E+02  2.59109000E+01  5.53335000E+00  3.66498000E+00
  7.70545000E-01  1.95857000E-01  5.44717800E+00  8.24547240E-01  1.83191580E-01
  5.44717800E+00  8.24547240E-01  1.83191580E-01  5.44717800E+00  8.24547240E-01
  1.83191580E-01  5.44717800E+00  8.24547240E-01  1.83191580E-01  5.44717800E+00
  8.24547240E-01  1.83191580E-01  5.44717800E+00  8.24547240E-01  1.83191580E-01
Contraction coefficients                   R   N=          30
  6.17669074E-02  3.58794043E-01  7.00713084E-01 -3.95895162E-01  1.21583436E+00
  1.00000000E+00  6.17669074E-02  3.58794043E-01  7.00713084E-01 -3.95895162E-01
  1.21583436E+00  1.00000000E+00  1.56284979E-01  9.04690877E-01  1.00000000E+00
  1.56284979E-01  9.04690877E-01  1.00000000E+00  1.56284979E-01  9.04690877E-01
  1.00000000E+00  1.56284979E-01  9.04690877E-01  1.00000000E+00  1.56284979E-01
  9.04690877E-01  1.00000000E+00  1.56284979E-01  9.04690877E-01  1.00000000E+00
P(S=P) Contraction coefficients            R   N=          30
  0.00000000E+00  0.00000000E+00  0.00000000E+00  2.36459947E-01  8.60618806E-01
  1.00000000E+00  0.00000000E+00  0.00000000E+00  0.00000000E+00  2.36459947E-01
  8.60618806E-01  1.00000000E+00  0.00000000E+00  0.00000000E+00  0.00000000E+00
  0.00000000E+00  0.00000000E+00  0.00000000E+00  0.00000000E+00  0.00000000E+00
  0.00000000E+00  0.00000000E+00  0.00000000E+00  0.00000000E+00  0.00000000E+00
  0.00000000E+00  0.00000000E+00  0.00000000E+00  0.00000000E+00  0.00000000E+00
Coordinates of each shell                  R   N=          54
  2.83458923E+01  2.83458920E+01  2.68888084E+01  2.83458923E+01  2.83458920E+01
  2.68888084E+01  2.83458923E+01  2.83458920E+01  2.68888084E+01  2.83458917E+01
  2.83458920E+01  2.98029756E+01  2.83458917E+01  2.83458920E+01  2.98029756E+01
  2.83458917E+01  2.83458920E+01  2.98029756E+01  3.02611807E+01  2.83458920E+01
  2.61609560E+01  3.02611807E+01  2.83458920E+01  2.61609560E+01  2.64306033E+01
  2.83458920E+01  3.05308281E+01  2.64306033E+01  2.83458920E+01  3.05308281E+01
  2.93035358E+01  2.66872037E+01  3.05308286E+01  2.93035358E+01  2.66872037E+01
  3.05308286E+01  2.93035358E+01  3.00045803E+01  3.05308286E+01  2.93035358E+01
  3.00045803E+01  3.05308286E+01  2.73882483E+01  2.66872037E+01  2.61609554E+01
  2.73882483E+01  2.66872037E+01  2.61609554E+01  2.73882483E+01  3.00045803E+01
  2.61609554E+01  2.73882483E+01  3.00045803E+01  2.61609554E+01
Alpha Orbital Energies                     R   N=          30
 -1.11520711E+01 -1.11518584E+01 -1.01886698E+00 -8.46146319E-01 -5.99334728E-01
 -5.99334728E-01 -5.02970596E-01 -4.86810668E-01 -4.86810668E-01  2.79294358E-01
  3.40272053E-01  3.40272054E-01  3.42833133E-01  3.70870907E-01  3.70870907E-01
  4.24668473E-01  9.04397754E-01  9.04397754E-01  9.73752418E-01  1.07368584E+00
  1.08629136E+00  1.08629136E+00  1.29245118E+00  1.36720556E+00  1.36720556E+00
  1.37237492E+00  1.37237492E+00  1.45370076E+00  1.94071484E+00  2.29637213E+00
Alpha MO coefficients                      R   N=         900
  6.98489972E-01  7.32013158E-02  1.54749624E-11 -4.19172298E-12 -1.37036341E-04
 -6.97999866E-02  2.08016332E-09  3.04830594E-11 -1.08158374E-02 -6.98489973E-01
 -7.32013159E-02  3.10260998E-11  4.19700066E-12 -1.37036341E-04  6.97999867E-02
  1.96699178E-09 -3.04635351E-11 -1.08158374E-02  8.92987264E-04  9.67617261E-03
 -8.92987277E-04 -9.67617267E-03 -8.92987274E-04 -9.67617265E-03 -8.92987267E-04
 -9.67617263E-03  8.92987283E-04  9.67617265E-03  8.92987276E-04  9.67617263E-03
  6.98009793E-01  7.03355282E-02 -1.74950699E-11 -4.28316757E-12  4.36108732E-05
 -4.40327822E-02 -9.32468087E-10  1.93185533E-11  5.26334012E-03  6.98009792E-01
  7.03355281E-02  1.42990966E-12 -4.28633780E-12 -4.36108735E-05 -4.40327821E-02
  1.00467412E-09  1.93305361E-11 -5.26334014E-03 -7.63321874E-04  1.08627234E-02
 -7.63321866E-04  1.08627234E-02 -7.63321868E-04  1.08627234E-02 -7.63321873E-04
  1.08627234E-02 -7.63321861E-04  1.08627234E-02 -7.63321866E-04  1.08627234E-02
 -1.56236455E-01  1.51810241E-01 -8.99193069E-09 -1.04300764E-10  4.71214633E-02
  4.10416509E-01 -1.13013895E-09 -1.42600495E-10  4.31154932E-03 -1.56236455E-01
  1.51810241E-01  8.59100103E-09 -1.04613917E-10 -4.71214633E-02  4.10416509E-01
  5.98088814E-10 -1.41909995E-10 -4.31154932E-03  7.94740123E-02  2.24065974E-03
  7.94740124E-02  2.24065964E-03  7.94740123E-02  2.24065967E-03  7.94740123E-02
  2.24065971E-03  7.94740124E-02  2.24065962E-03  7.94740123E-02  2.24065966E-03
 -1.38825702E-01  1.25677459E-01  1.94595562E-08 -1.11923534E-10 -1.05979904E-01
  4.86301723E-01  5.11373582E-09 -1.92368620E-10 -2.97977165E-02  1.38825702E-01
 -1.25677459E-01  1.98973221E-08  1.11481689E-10 -1.05979904E-01 -4.86301723E-01
  5.83481659E-09  1.92382694E-10 -2.97977165E-02  1.05733813E-01  3.55748714E-02
 -1.05733813E-01 -3.55748713E-02 -1.05733813E-01 -3.55748713E-02 -1.05733813E-01
 -3.55748714E-02  1.05733813E-01  3.55748712E-02  1.05733813E-01  3.55748713E-02
 -1.68718255E-10  2.03299408E-10  2.66823810E-01  6.49975707E-06  4.93804380E-08
  4.81350692E-10  2.09246096E-01  5.09708876E-06  3.86782740E-08 -1.40953675E-10
  1.41908404E-10  2.66823809E-01  6.50043914E-06  4.97279774E-08  5.62908314E-10
  2.09246095E-01  5.09780463E-06  3.89954102E-08  1.69919931E-01  1.40651119E-01
 -1.69919930E-01 -1.40651118E-01  8.49563799E-02  7.03225918E-02  8.49635501E-02
  7.03285268E-02 -8.49635500E-02 -7.03285267E-02 -8.49563809E-02 -7.03225923E-02
 -8.21718768E-11  9.38968475E-11 -6.50043561E-06  2.66823809E-01 -1.13102626E-10
  2.71051700E-10 -5.09781314E-06  2.09246095E-01 -1.01155303E-10 -8.23900460E-11
  9.25009532E-11 -6.49976058E-06  2.66823810E-01  1.10808679E-10  2.78363263E-10
 -5.09708022E-06  2.09246096E-01  9.38357036E-11 -4.13961966E-06 -3.42649376E-06
  4.13922312E-06  3.42631327E-06 -1.47157046E-01 -1.21809155E-01  1.47152907E-01
  1.21805729E-01 -1.47152906E-01 -1.21805728E-01  1.47157046E-01  1.21809155E-01
 -1.86873028E-02  1.66723122E-02 -6.64576560E-08  1.49416009E-10  3.49300252E-01
  5.70540443E-02 -5.38069474E-08  8.94754376E-11  2.81455382E-01 -1.86873028E-02
  1.66723122E-02  6.69683482E-08  1.49280621E-10 -3.49300252E-01  5.70540443E-02
  5.40983372E-08  9.14011561E-11 -2.81455382E-01 -7.53353355E-02 -8.51080621E-02
 -7.53353353E-02 -8.51080621E-02 -7.53353333E-02 -8.51080600E-02 -7.53353334E-02
 -8.51080600E-02 -7.53353332E-02 -8.51080600E-02 -7.53353333E-02 -8.51080600E-02
 -2.24726784E-10  2.66648230E-10  2.64924000E-01 -1.61453579E-05  5.13711595E-08
  4.65186914E-10  2.43804312E-01 -1.48582699E-05  4.69659515E-08 -1.03403854E-10
  5.37806142E-11 -2.64924001E-01  1.61460441E-05 -5.18915257E-08  5.70515224E-10
 -2.43804313E-01  1.48588679E-05 -4.76386317E-08  1.98830369E-01  2.05532559E-01
  1.98830370E-01  2.05532560E-01 -9.94256800E-02 -1.02777129E-01 -9.94046913E-02
 -1.02755433E-01 -9.94046913E-02 -1.02755433E-01 -9.94256794E-02 -1.02777128E-01
 -3.10010147E-11  5.74369092E-11  1.61460503E-05  2.64924001E-01 -1.37806335E-10
 -4.15957334E-11  1.48588851E-05  2.43804313E-01 -1.77738046E-10  3.09158805E-11
 -5.79089948E-11 -1.61453517E-05 -2.64924000E-01 -1.44447890E-10  4.30139954E-11
 -1.48582529E-05 -2.43804312E-01 -1.84179430E-10  1.21178895E-05  1.25264282E-05
  1.21174056E-05  1.25257917E-05  1.72186092E-01  1.77990155E-01 -1.72198210E-01
 -1.78002681E-01 -1.72198211E-01 -1.78002682E-01  1.72186093E-01  1.77990155E-01
 -1.09235066E-01  2.76266445E-02  1.53327182E-08 -2.99539484E-10 -8.58731675E-02
  1.56564737E+00  8.95040219E-08 -1.58820808E-09 -5.01035752E-01 -1.09235066E-01
  2.76266445E-02 -1.63636347E-08 -3.00261352E-10  8.58731675E-02  1.56564737E+00
 -9.51110711E-08 -1.58908266E-09  5.01035752E-01  2.66490559E-03 -7.61559824E-01
  2.66490557E-03 -7.61559827E-01  2.66490552E-03 -7.61559826E-01  2.66490554E-03
 -7.61559824E-01  2.66490551E-03 -7.61559828E-01  2.66490553E-03 -7.61559826E-01
  2.60451103E-09 -4.97377490E-10 -2.04572937E-01  1.45841183E-04 -3.73327132E-08
 -3.69291095E-08 -8.56624942E-01  6.10692877E-04 -1.59768677E-07 -2.19425457E-09
  2.94180177E-10 -2.04572938E-01  1.45841525E-04 -3.83182706E-08  3.13570863E-08
 -8.56624949E-01  6.10693915E-04 -1.63640531E-07  6.49001124E-02  1.17899342E+00
 -6.49001128E-02 -1.17899342E+00  3.24901257E-02  5.90224599E-01  3.24099875E-02
  5.88768789E-01 -3.24099872E-02 -5.88768783E-01 -3.24901251E-02 -5.90224592E-01
  1.07677131E-10 -5.52240864E-11 -1.45841955E-04 -2.04572938E-01  2.46069450E-10
 -1.51167603E-09 -6.10696894E-04 -8.56624948E-01  1.02296801E-09  1.34886797E-10
 -5.66259102E-11 -1.45840754E-04 -2.04572937E-01 -3.03859768E-10 -1.91337976E-09
 -6.10689898E-04 -8.56624942E-01 -1.20377349E-09  4.62679716E-05  8.40516670E-04
 -4.62674392E-05 -8.40507053E-04 -5.61820122E-02 -1.02061798E+00  5.62282799E-02
  1.02145849E+00 -5.62282804E-02 -1.02145850E+00  5.61820126E-02  1.02061799E+00
 -1.43336949E-01  2.02494674E-02  2.44115503E-09  5.58539721E-10 -2.59758578E-02
  2.07577075E+00 -3.16386000E-08  3.04932905E-09  1.22905486E-01  1.43336949E-01
 -2.02494674E-02  3.69395644E-10 -5.17893719E-10 -2.59758578E-02 -2.07577075E+00
 -4.29832184E-08 -2.86732722E-09  1.22905486E-01  3.75818114E-03 -7.74862150E-01
 -3.75818154E-03  7.74862137E-01 -3.75817981E-03  7.74862173E-01 -3.75817964E-03
  7.74862179E-01  3.75818002E-03 -7.74862166E-01  3.75817983E-03 -7.74862172E-01
  4.50418497E-10  5.84116825E-11  3.06338648E-05  1.96770055E-01 -2.29372270E-11
 -7.70675345E-09  1.97992928E-04  1.27176428E+00 -2.20609077E-09 -4.50283308E-10
 -6.00357041E-11 -3.06342766E-05 -1.96770057E-01 -3.32642657E-11  7.70681055E-09
 -1.97995342E-04 -1.27176429E+00 -2.28097072E-09 -4.03854229E-06 -2.00195454E-04
 -4.03824144E-06 -2.00202663E-04 -2.24623065E-02 -1.11354539E+00  2.24663450E-02
  1.11374559E+00  2.24663449E-02  1.11374558E+00 -2.24623066E-02 -1.11354538E+00
 -8.13445483E-10 -1.14876003E-10 -1.96770057E-01  3.06348116E-05 -3.63524653E-08
  1.36776810E-08 -1.27176429E+00  1.97997427E-04 -2.31485596E-07  9.09905155E-10
  1.02239689E-10  1.96770055E-01 -3.06333298E-05  3.64980244E-08 -1.58547312E-08
  1.27176428E+00 -1.97990843E-04  2.40059155E-07  2.59395691E-02  1.28592704E+00
  2.59395687E-02  1.28592704E+00 -1.29732819E-02 -6.43136887E-01 -1.29662873E-02
 -6.42790141E-01 -1.29662869E-02 -6.42790147E-01 -1.29732817E-02 -6.43136910E-01
 -5.64334633E-02  4.30338080E-03 -4.70470965E-08  2.49438206E-10  2.55055088E-01
  8.21408033E-01 -3.10925300E-07  1.14207923E-09  1.68050305E+00  5.64334633E-02
 -4.30338080E-03 -4.80048752E-08 -2.51791097E-10  2.55055088E-01 -8.21408033E-01
 -3.15426737E-07 -1.12498874E-09  1.68050305E+00  4.50604299E-02  3.60650939E-01
 -4.50604301E-02 -3.60650941E-01 -4.50604301E-02 -3.60650938E-01 -4.50604300E-02
 -3.60650937E-01  4.50604301E-02  3.60650939E-01  4.50604301E-02  3.60650938E-01
 -9.05176251E-12 -7.14223622E-10 -4.47481796E-01  1.29076541E-04 -8.27708478E-08
 -7.79007315E-10  6.48928528E-01 -1.87184359E-04  1.18506611E-07  4.79230293E-11
 -6.29720702E-10 -4.47481799E-01  1.29078162E-04 -8.22306738E-08  8.39577088E-10
  6.48928532E-01 -1.87186069E-04  1.19017714E-07 -4.97484238E-01  1.07354128E-01
  4.97484239E-01 -1.07354129E-01 -2.48866395E-01  5.37038838E-02 -2.48617844E-01
  5.36502471E-02  2.48617843E-01 -5.36502456E-02  2.48866393E-01 -5.37038803E-02
  8.30860774E-12 -3.80126677E-10 -1.29078243E-04 -4.47481799E-01 -1.16945083E-10
  1.18738667E-10  1.87186083E-04  6.48928532E-01 -2.02304746E-10  7.47581388E-12
 -3.76608920E-10 -1.29076459E-04 -4.47481796E-01  6.19983175E-11  1.20316685E-10
  1.87184345E-04  6.48928528E-01  2.72353413E-10 -1.43501682E-04  3.09676319E-05
  1.43499703E-04 -3.09655545E-05  4.30762237E-01 -9.29559183E-02 -4.30905738E-01
  9.29868849E-02  4.30905739E-01 -9.29868869E-02 -4.30762239E-01  9.29559203E-02
  6.60794318E-03  3.25766523E-02  1.27532675E-07 -2.54147498E-10 -6.91986986E-01
 -5.36359379E-01 -1.64783154E-07  3.12442453E-10  8.95548769E-01  6.60794318E-03
  3.25766523E-02 -1.28287620E-07 -2.57037286E-10  6.91986986E-01 -5.36359379E-01
  1.65745576E-07  3.20776100E-10 -8.95548769E-01  1.78666922E-01  5.63780833E-02
  1.78666922E-01  5.63780827E-02  1.78666922E-01  5.63780828E-02  1.78666922E-01
  5.63780831E-02  1.78666922E-01  5.63780825E-02  1.78666922E-01  5.63780828E-02
  5.92747892E-02 -1.50455503E-01  1.56704539E-07  1.07732975E-08 -7.41922578E-01
  2.92347191E-01 -2.71573909E-07 -2.46680660E-08  1.22703492E+00 -5.92747892E-02
  1.50455503E-01  1.17785282E-07 -1.07745496E-08 -7.41922578E-01 -2.92347191E-01
 -1.82564997E-07  2.46711970E-08  1.22703492E+00  1.78299249E-01  1.57087496E-01
 -1.78299229E-01 -1.57087477E-01 -1.78299240E-01 -1.57087487E-01 -1.78299250E-01
 -1.57087496E-01  1.78299230E-01  1.57087478E-01  1.78299239E-01  1.57087487E-01
  1.00012864E-09 -2.64113406E-09 -1.72267515E-04 -6.94239549E-01 -1.20739569E-08
  3.93585495E-09  3.95519215E-04  1.59394689E+00  1.95620611E-08 -1.00025766E-09
  2.64044197E-09  1.72268905E-04  6.94239551E-01 -1.20079694E-08 -3.93435217E-09
 -3.95522949E-04 -1.59394689E+00  1.94129642E-08 -7.73191742E-05 -9.44814351E-05
 -7.73259876E-05 -9.44890752E-05 -2.69823000E-01 -3.29713448E-01  2.69900318E-01
  3.29807928E-01  2.69900320E-01  3.29807931E-01 -2.69822993E-01 -3.29713440E-01
  1.78116518E-09 -4.97362041E-09 -6.94239552E-01  1.72268748E-04 -1.50203169E-07
  8.20556700E-09  1.59394690E+00 -3.95522916E-04  3.30221353E-07 -1.84699953E-09
  4.55503155E-09  6.94239549E-01 -1.72267672E-04  1.06737432E-07 -5.68829061E-09
 -1.59394689E+00  3.95519248E-04 -2.59857281E-07 -3.11609398E-01 -3.80774841E-01
 -3.11609405E-01 -3.80774849E-01  1.55871657E-01  1.90469242E-01  1.55737732E-01
  1.90305590E-01  1.55737742E-01  1.90305601E-01  1.55871670E-01  1.90469256E-01
  6.82643086E-02 -2.04496153E-03 -6.44943038E-08 -1.52667149E-11  3.41705764E-01
 -1.28792028E-01  1.71562707E-08  1.04264767E-09 -7.18770474E-02  6.82643086E-02
 -2.04496153E-03  6.39949974E-08 -1.38305299E-11 -3.41705764E-01 -1.28792028E-01
 -1.26979966E-08  1.04059049E-09  7.18770474E-02  5.12226225E-01 -2.13581187E-01
  5.12226227E-01 -2.13581184E-01  5.12226225E-01 -2.13581184E-01  5.12226225E-01
 -2.13581185E-01  5.12226226E-01 -2.13581182E-01  5.12226225E-01 -2.13581183E-01
 -2.31257493E-10  5.21296194E-10 -1.09162900E-04  4.38135632E-01 -2.16449702E-09
  8.21616486E-10  6.40790590E-05 -2.57230151E-01  3.82038274E-09  2.31494453E-10
 -5.22686384E-10  1.09195464E-04 -4.38135573E-01 -2.12600256E-09 -8.19412221E-10
 -6.41194851E-05  2.57230077E-01  3.79858090E-09  1.82412422E-04 -1.98803674E-04
  1.82442177E-04 -1.98857202E-04 -6.34091068E-01  6.91106010E-01  6.33908630E-01
 -6.90907158E-01  6.33908682E-01 -6.90907258E-01 -6.34091099E-01  6.91106067E-01
 -4.00544325E-10  8.50427259E-10  4.38135572E-01  1.09197738E-04  7.75753639E-08
  1.77609016E-09 -2.57230076E-01 -6.41221548E-05 -4.05584687E-08  5.02850992E-10
 -1.35964772E-09 -4.38135632E-01 -1.09160626E-04 -8.57395713E-08 -9.60585686E-10
  2.57230149E-01  6.40763908E-05  5.51985826E-08 -7.32079970E-01  7.97905677E-01
 -7.32080011E-01  7.97905761E-01  3.65882037E-01 -3.98780718E-01  3.66197985E-01
 -3.99125054E-01  3.66197980E-01 -3.99125050E-01  3.65881981E-01 -3.98780617E-01
 -3.05803984E-11 -5.88472932E-11  1.55013271E-05  6.82086446E-01 -3.68121907E-10
  6.78336596E-11 -1.88387946E-05 -8.28633224E-01  5.02790431E-10 -3.22014137E-11
 -5.85957291E-11  1.55255078E-05  6.82086485E-01  3.75727398E-10  7.33102578E-11
 -1.88541783E-05 -8.28633247E-01 -5.11526698E-10 -1.26970645E-05  2.32311471E-05
  1.27361849E-05 -2.32742570E-05  4.84204634E-01 -8.85381365E-01 -4.84217370E-01
  8.85404639E-01  4.84217295E-01 -8.85404558E-01 -4.84204599E-01  8.85381326E-01
  1.65771586E-11 -3.47348866E-10  6.82086485E-01 -1.55238254E-05  1.26121079E-07
  5.60756567E-10 -8.28633247E-01  1.88526104E-05 -1.53191802E-07 -8.10932331E-11
  1.97234351E-10  6.82086446E-01 -1.55030094E-05  1.27202437E-07 -4.50616422E-10
 -8.28633223E-01  1.88403622E-05 -1.54987766E-07 -5.59118705E-01  1.02236378E+00
  5.59118641E-01 -1.02236371E+00 -2.79570319E-01  5.11201975E-01 -2.79548323E-01
  5.11161733E-01  2.79548325E-01 -5.11161734E-01  2.79570381E-01 -5.11202042E-01
 -8.13477417E-02  3.62267233E-01  6.83658226E-08 -1.51254730E-09 -3.82166556E-01
 -1.68311923E-01 -1.53521178E-07  5.60965382E-12  8.23455394E-01  8.13477417E-02
 -3.62267233E-01  7.43552423E-08  1.52494201E-09 -3.82166556E-01  1.68311923E-01
 -1.53839560E-07 -2.06584936E-11  8.23455394E-01 -4.84591192E-01  5.46344629E-01
  4.84591203E-01 -5.46344638E-01  4.84591197E-01 -5.46344632E-01  4.84591192E-01
 -5.46344628E-01 -4.84591202E-01  5.46344637E-01 -4.84591197E-01  5.46344633E-01
  6.84032072E-03 -1.39454778E+00  1.04219121E-08  3.01041870E-10 -5.25691446E-02
  2.22289640E+00  5.37299451E-08 -1.29844955E-09 -3.06101178E-01  6.84032072E-03
 -1.39454778E+00 -9.28841872E-09  3.01394655E-10  5.25691446E-02  2.22289640E+00
 -5.85919741E-08 -1.29593744E-09  3.06101178E-01 -3.17494822E-02 -5.82026906E-01
 -3.17494833E-02 -5.82026907E-01 -3.17494832E-02 -5.82026907E-01 -3.17494826E-02
 -5.82026906E-01 -3.17494837E-02 -5.82026907E-01 -3.17494832E-02 -5.82026907E-01
 -7.82874305E-02 -1.53552632E+00 -1.45586842E-09  1.67108453E-10  1.03472566E-02
  4.05662157E+00 -1.71263126E-07 -2.68172233E-09  8.88983822E-01  7.82874305E-02
  1.53552632E+00 -2.02791229E-09 -1.62575833E-10  1.03472566E-02 -4.05662157E+00
 -1.61354108E-07  2.67697745E-09  8.88983822E-01 -3.05169085E-01 -4.20919597E-01
  3.05169087E-01  4.20919600E-01  3.05169087E-01  4.20919599E-01  3.05169085E-01
  4.20919598E-01 -3.05169088E-01 -4.20919600E-01 -3.05169087E-01 -4.20919599E-01
Total SCF Density                          R   N=         465
  2.03827507E+00  1.17496313E-01  9.88493162E-02 -3.21321977E-10  1.94693650E-10
  2.82759343E-01 -1.40242025E-11  2.45003381E-11  4.84190856E-12  2.82759343E-01
  1.51577375E-03 -6.98170446E-04  2.17122902E-09 -1.61136922E-11  2.70925718E-01
 -4.24378577E-01  2.32334594E-01  4.46492725E-09 -5.38608722E-11 -2.45242928E-02
  8.29994330E-01  2.36833197E-09 -4.63473094E-10  2.40842909E-01 -3.43703772E-12
  6.93371907E-09 -1.87383197E-09  2.06448943E-01  1.14679709E-10 -1.41893651E-11
 -3.42346317E-12  2.40842909E-01 -2.57150593E-11 -2.06754776E-10 -3.15781630E-12
  2.06448943E-01 -1.13549305E-02  2.36122871E-03  6.87789213E-09 -5.92449984E-11
  2.03350546E-01  7.72040758E-03  8.42973068E-09 -6.98554001E-11  1.60536621E-01
  9.63179634E-03 -1.72361815E-02  1.05204890E-08 -3.17775881E-11 -5.69522902E-02
  4.06844979E-02 -5.33109849E-10 -4.72149838E-11  2.31732984E-03  2.03827507E+00
 -1.72361815E-02  1.42362913E-02 -9.73790011E-09  2.01381210E-11  5.26190943E-02
  8.30373885E-03 -3.77277230E-09  1.67685032E-11  2.05077679E-02  1.17496313E-01
  9.88493162E-02 -1.06375141E-08  9.81467564E-09  2.02043869E-03  1.43288883E-12
  4.25091748E-08  3.40515455E-08 -1.75155471E-02 -3.78545049E-11  3.23405997E-08
  2.75370879E-10 -1.16958412E-10  2.82759343E-01 -3.13984736E-11  2.09339886E-11
 -1.44507666E-12  2.02043868E-03  8.57575684E-11  2.06089412E-10 -5.30436044E-11
 -1.75155473E-02  1.18562205E-10 -1.41373202E-11  2.40253522E-11 -4.81301029E-12
  2.82759343E-01  5.69522902E-02 -5.26190943E-02  4.21927209E-08 -8.59082612E-11
 -2.25998683E-01 -1.81590286E-01  3.21196823E-08 -3.03166199E-11 -1.90712781E-01
 -1.51577375E-03  6.98170446E-04  2.22063709E-09  1.65802265E-11  2.70925718E-01