 Entering Gaussian System, Link 0=g03
 Initial command:
 /opt/gaussian/g03_D1_amd64/g03/l1.exe /home/toon/unief/research/code/work/tamkin/examples/013_butane/scan/Gau-997.inp -scrdir=/home/toon/unief/research/code/work/tamkin/examples/013_butane/scan/
 Entering Link 1 = /opt/gaussian/g03_D1_amd64/g03/l1.exe PID=       999.
  
 Copyright (c) 1988,1990,1992,1993,1995,1998,2003,2004, Gaussian, Inc.
                  All Rights Reserved.
  
 This is the Gaussian(R) 03 program.  It is based on the
 the Gaussian(R) 98 system (copyright 1998, Gaussian, Inc.),
 the Gaussian(R) 94 system (copyright 1995, Gaussian, Inc.),
 the Gaussian 92(TM) system (copyright 1992, Gaussian, Inc.),
 the Gaussian 90(TM) system (copyright 1990, Gaussian, Inc.),
 the Gaussian 88(TM) system (copyright 1988, Gaussian, Inc.),
 the Gaussian 86(TM) system (copyright 1986, Carnegie Mellon
 University), and the Gaussian 82(TM) system (copyright 1983,
 Carnegie Mellon University). Gaussian is a federally registered
 trademark of Gaussian, Inc.
  
 This software contains proprietary and confidential information,
 including trade secrets, belonging to Gaussian, Inc.
  
 This software is provided under written license and may be
 used, copied, transmitted, or stored only in accord with that
 written license.
  
 The following legend is applicable only to US Government
 contracts under FAR:
  
                    RESTRICTED RIGHTS LEGEND
  
 Use, reproduction and disclosure by the US Government is
 subject to restrictions as set forth in subparagraphs (a)
 and (c) of the Commercial Computer Software - Restricted
 Rights clause in FAR 52.227-19.
  
 Gaussian, Inc.
 340 Quinnipiac St., Bldg. 40, Wallingford CT 06492
  
  
 ---------------------------------------------------------------
 Warning -- This program may not be used in any manner that
 competes with the business of Gaussian, Inc. or will provide
 assistance to any competitor of Gaussian, Inc.  The licensee
 of this program is prohibited from giving any competitor of
 Gaussian, Inc. access to this program.  By using this program,
 the user acknowledges that Gaussian, Inc. is engaged in the
 business of creating and licensing software in the field of
 computational chemistry and represents and warrants to the
 licensee that it is not a competitor of Gaussian, Inc. and that
 it will not use this program in any manner prohibited above.
 ---------------------------------------------------------------
  

 Cite this work as:
 Gaussian 03, Revision D.01,
 M. J. Frisch, G. W. Trucks, H. B. Schlegel, G. E. Scuseria, 
 M. A. Robb, J. R. Cheeseman, J. A. Montgomery, Jr., T. Vreven, 
 K. N. Kudin, J. C. Burant, J. M. Millam, S. S. Iyengar, J. Tomasi, 
 V. Barone, B. Mennucci, M. Cossi, G. Scalmani, N. Rega, 
 G. A. Petersson, H. Nakatsuji, M. Hada, M. Ehara, K. Toyota, 
 R. Fukuda, J. Hasegawa, M. Ishida, T. Nakajima, Y. Honda, O. Kitao, 
 H. Nakai, M. Klene, X. Li, J. E. Knox, H. P. Hratchian, J. B. Cross, 
 V. Bakken, C. Adamo, J. Jaramillo, R. Gomperts, R. E. Stratmann, 
 O. Yazyev, A. J. Austin, R. Cammi, C. Pomelli, J. W. Ochterski, 
 P. Y. Ayala, K. Morokuma, G. A. Voth, P. Salvador, J. J. Dannenberg, 
 V. G. Zakrzewski, S. Dapprich, A. D. Daniels, M. C. Strain, 
 O. Farkas, D. K. Malick, A. D. Rabuck, K. Raghavachari, 
 J. B. Foresman, J. V. Ortiz, Q. Cui, A. G. Baboul, S. Clifford, 
 J. Cioslowski, B. B. Stefanov, G. Liu, A. Liashenko, P. Piskorz, 
 I. Komaromi, R. L. Martin, D. J. Fox, T. Keith, M. A. Al-Laham, 
 C. Y. Peng, A. Nanayakkara, M. Challacombe, P. M. W. Gill, 
 B. Johnson, W. Chen, M. W. Wong, C. Gonzalez, and J. A. Pople, 
 Gaussian, Inc., Wallingford CT, 2004.
 
 ******************************************
 Gaussian 03:  AM64L-G03RevD.01 13-Oct-2005
                10-Mar-2010 
 ******************************************
 %chk=gaussian.chk
 %nproc=4
 Will use up to    4 processors via shared memory.
 %mem=2GB
 ----------------------------------
 # B3LYP/6-31G(d) opt(modredundant)
 ----------------------------------
 1/14=-1,18=120,26=3,38=1/1,3;
 2/9=110,17=6,18=5,40=1/2;
 3/5=1,6=6,7=1,11=2,16=1,25=1,30=1,74=-5/1,2,3;
 4//1;
 5/5=2,38=5/2;
 6/7=2,8=2,9=2,10=2,28=1/1;
 7//1,2,3,16;
 1/14=-1,18=20/3(3);
 2/9=110/2;
 6/7=2,8=2,9=2,10=2,19=2,28=1/1;
 99//99;
 2/9=110/2;
 3/5=1,6=6,7=1,11=2,16=1,25=1,30=1,74=-5/1,2,3;
 4/5=5,16=3/1;
 5/5=2,38=5/2;
 7//1,2,3,16;
 1/14=-1,18=20/3(-5);
 2/9=110/2;
 6/7=2,8=2,9=2,10=2,19=2,28=1/1;
 99/9=1/99;
 -----
 title
 -----
 Symbolic Z-matrix:
 Charge =  0 Multiplicity = 1
 H                    -2.10617  -0.76435  -0.88464 
 C                    -1.96191  -0.1317    0. 
 H                    -2.10617  -0.76435   0.88465 
 H                    -2.75443   0.62545   0. 
 C                    -0.57145   0.51155   0. 
 H                    -0.47023   1.16577   0.878 
 H                    -0.47023   1.16577  -0.87799 
 C                     0.57145  -0.51155   0. 
 H                     0.47023  -1.16577   0.878 
 H                     0.47023  -1.16577  -0.87799 
 C                     1.96191   0.1317    0. 
 H                     2.10617   0.76435   0.88465 
 H                     2.75443  -0.62545   0. 
 H                     2.10617   0.76435  -0.88464 
 
 The following ModRedundant input section has been read:
 D    2    5    8   11 S  72 5.0000                                            

 GradGradGradGradGradGradGradGradGradGradGradGradGradGradGradGradGradGrad
 Berny optimization.
 Initialization pass.
                           ----------------------------
                           !    Initial Parameters    !
                           ! (Angstroms and Degrees)  !
 --------------------------                            --------------------------
 ! Name  Definition              Value          Derivative Info.                !
 --------------------------------------------------------------------------------
 ! R1    R(1,2)                  1.0971         estimate D2E/DX2                !
 ! R2    R(2,3)                  1.0971         estimate D2E/DX2                !
 ! R3    R(2,4)                  1.0961         estimate D2E/DX2                !
 ! R4    R(2,5)                  1.532          estimate D2E/DX2                !
 ! R5    R(5,6)                  1.0996         estimate D2E/DX2                !
 ! R6    R(5,7)                  1.0996         estimate D2E/DX2                !
 ! R7    R(5,8)                  1.5339         estimate D2E/DX2                !
 ! R8    R(8,9)                  1.0996         estimate D2E/DX2                !
 ! R9    R(8,10)                 1.0996         estimate D2E/DX2                !
 ! R10   R(8,11)                 1.532          estimate D2E/DX2                !
 ! R11   R(11,12)                1.0971         estimate D2E/DX2                !
 ! R12   R(11,13)                1.0961         estimate D2E/DX2                !
 ! R13   R(11,14)                1.0971         estimate D2E/DX2                !
 ! A1    A(1,2,3)              107.4802         estimate D2E/DX2                !
 ! A2    A(1,2,4)              107.6535         estimate D2E/DX2                !
 ! A3    A(1,2,5)              111.1897         estimate D2E/DX2                !
 ! A4    A(3,2,4)              107.6535         estimate D2E/DX2                !
 ! A5    A(3,2,5)              111.1898         estimate D2E/DX2                !
 ! A6    A(4,2,5)              111.4816         estimate D2E/DX2                !
 ! A7    A(2,5,6)              109.4717         estimate D2E/DX2                !
 ! A8    A(2,5,7)              109.4718         estimate D2E/DX2                !
 ! A9    A(2,5,8)              113.3397         estimate D2E/DX2                !
 ! A10   A(6,5,7)              105.9673         estimate D2E/DX2                !
 ! A11   A(6,5,8)              109.1625         estimate D2E/DX2                !
 ! A12   A(7,5,8)              109.1626         estimate D2E/DX2                !
 ! A13   A(5,8,9)              109.1626         estimate D2E/DX2                !
 ! A14   A(5,8,10)             109.1625         estimate D2E/DX2                !
 ! A15   A(5,8,11)             113.3397         estimate D2E/DX2                !
 ! A16   A(9,8,10)             105.9673         estimate D2E/DX2                !
 ! A17   A(9,8,11)             109.4718         estimate D2E/DX2                !
 ! A18   A(10,8,11)            109.4717         estimate D2E/DX2                !
 ! A19   A(8,11,12)            111.1898         estimate D2E/DX2                !
 ! A20   A(8,11,13)            111.4816         estimate D2E/DX2                !
 ! A21   A(8,11,14)            111.1898         estimate D2E/DX2                !
 ! A22   A(12,11,13)           107.6535         estimate D2E/DX2                !
 ! A23   A(12,11,14)           107.4801         estimate D2E/DX2                !
 ! A24   A(13,11,14)           107.6535         estimate D2E/DX2                !
 ! D1    D(1,2,5,6)            178.0148         estimate D2E/DX2                !
 ! D2    D(1,2,5,7)             62.2623         estimate D2E/DX2                !
 ! D3    D(1,2,5,8)            -59.8615         estimate D2E/DX2                !
 ! D4    D(3,2,5,6)            -62.2623         estimate D2E/DX2                !
 ! D5    D(3,2,5,7)           -178.0148         estimate D2E/DX2                !
 ! D6    D(3,2,5,8)             59.8614         estimate D2E/DX2                !
 ! D7    D(4,2,5,6)             57.8763         estimate D2E/DX2                !
 ! D8    D(4,2,5,7)            -57.8763         estimate D2E/DX2                !
 ! D9    D(4,2,5,8)            179.9999         estimate D2E/DX2                !
 ! D10   D(2,5,8,9)            -57.7042         estimate D2E/DX2                !
 ! D11   D(2,5,8,10)            57.7042         estimate D2E/DX2                !
 ! D12   D(2,5,8,11)           180.0            Scan                            !
 ! D13   D(6,5,8,9)             64.5916         estimate D2E/DX2                !
 ! D14   D(6,5,8,10)           180.0            estimate D2E/DX2                !
 ! D15   D(6,5,8,11)           -57.7043         estimate D2E/DX2                !
 ! D16   D(7,5,8,9)            180.0            estimate D2E/DX2                !
 ! D17   D(7,5,8,10)           -64.5916         estimate D2E/DX2                !
 ! D18   D(7,5,8,11)            57.7042         estimate D2E/DX2                !
 ! D19   D(5,8,11,12)           59.8614         estimate D2E/DX2                !
 ! D20   D(5,8,11,13)          180.0            estimate D2E/DX2                !
 ! D21   D(5,8,11,14)          -59.8615         estimate D2E/DX2                !
 ! D22   D(9,8,11,12)          -62.2624         estimate D2E/DX2                !
 ! D23   D(9,8,11,13)           57.8762         estimate D2E/DX2                !
 ! D24   D(9,8,11,14)          178.0148         estimate D2E/DX2                !
 ! D25   D(10,8,11,12)        -178.0149         estimate D2E/DX2                !
 ! D26   D(10,8,11,13)         -57.8763         estimate D2E/DX2                !
 ! D27   D(10,8,11,14)          62.2623         estimate D2E/DX2                !
 --------------------------------------------------------------------------------
 Trust Radius=3.00D-01 FncErr=1.00D-07 GrdErr=1.00D-06
 Number of optimizations in scan=  73
 Number of steps in this run=  74 maximum allowed number of steps= 100.
 GradGradGradGradGradGradGradGradGradGradGradGradGradGradGradGradGradGrad

                          Input orientation:                          
 ---------------------------------------------------------------------
 Center     Atomic     Atomic              Coordinates (Angstroms)
 Number     Number      Type              X           Y           Z
 ---------------------------------------------------------------------
    1          1             0       -2.106171   -0.764346   -0.884644
    2          6             0       -1.961905   -0.131704    0.000001
    3          1             0       -2.106171   -0.764348    0.884645
    4          1             0       -2.754428    0.625446    0.000002
    5          6             0       -0.571445    0.511546    0.000001
    6          1             0       -0.470234    1.165772    0.877997
    7          1             0       -0.470234    1.165773   -0.877993
    8          6             0        0.571445   -0.511546    0.000001
    9          1             0        0.470234   -1.165773    0.877995
   10          1             0        0.470234   -1.165772   -0.877994
   11          6             0        1.961905    0.131704    0.000001
   12          1             0        2.106171    0.764348    0.884645
   13          1             0        2.754428   -0.625446    0.000001
   14          1             0        2.106171    0.764347   -0.884644
 ---------------------------------------------------------------------
 SCF Done:  E(RB+HF-LYP) =  -158.458042198     A.U. after   11 cycles
    -- Stationary point found.
                          Input orientation:                          
 ---------------------------------------------------------------------
 Center     Atomic     Atomic              Coordinates (Angstroms)
 Number     Number      Type              X           Y           Z
 ---------------------------------------------------------------------
    1          1             0       -2.136044   -0.779923   -0.848025
    2          6             0       -1.960548   -0.131540    0.019485
    3          1             0       -2.072614   -0.748207    0.920005
    4          1             0       -2.752944    0.625608    0.034330
    5          6             0       -0.571374    0.511570   -0.041889
    6          1             0       -0.471500    1.165873    0.836178
    7          1             0       -0.468763    1.165292   -0.920074
    8          6             0        0.571374   -0.511570   -0.041890
    9          1             0        0.471500   -1.165873    0.836177
   10          1             0        0.468763   -1.165291   -0.920075
   11          6             0        1.960548    0.131540    0.019484
   12          1             0        2.072614    0.748206    0.920005
   13          1             0        2.752944   -0.625608    0.034329
   14          1             0        2.136044    0.779923   -0.848025
 ---------------------------------------------------------------------
 SCF Done:  E(RB+HF-LYP) =  -158.457595034     A.U. after   12 cycles
                          Input orientation:                          
 ---------------------------------------------------------------------
 Center     Atomic     Atomic              Coordinates (Angstroms)
 Number     Number      Type              X           Y           Z
 ---------------------------------------------------------------------
    1          1             0       -2.135690   -0.799681   -0.829235
    2          6             0       -1.960927   -0.131373    0.023702
    3          1             0       -2.073021   -0.727215    0.937482
    4          1             0       -2.753861    0.625354    0.019999
    5          6             0       -0.571515    0.511554   -0.037670
    6          1             0       -0.448064    1.189100    0.820394
    7          1             0       -0.492305    1.141409   -0.934663
    8          6             0        0.571515   -0.511554   -0.037670
    9          1             0        0.448064   -1.189100    0.820393
   10          1             0        0.492305   -1.141408   -0.934665
   11          6             0        1.960927    0.131373    0.023701
   12          1             0        2.073021    0.727214    0.937483
   13          1             0        2.753861   -0.625354    0.019998
   14          1             0        2.135690    0.799682   -0.829235
 ---------------------------------------------------------------------
 SCF Done:  E(RB+HF-LYP) =  -158.457944393     A.U. after    9 cycles
                          Input orientation:                          
 ---------------------------------------------------------------------
 Center     Atomic     Atomic              Coordinates (Angstroms)
 Number     Number      Type              X           Y           Z
 ---------------------------------------------------------------------
    1          1             0       -2.130075   -0.797469   -0.830223
    2          6             0       -1.960926   -0.131121    0.024810
    3          1             0       -2.078670   -0.729001    0.937059
    4          1             0       -2.753885    0.625551    0.017735
    5          6             0       -0.571657    0.511571   -0.036547
    6          1             0       -0.448038    1.188977    0.820946
    7          1             0       -0.493982    1.142095   -0.933771
    8          6             0        0.571657   -0.511570   -0.036548
    9          1             0        0.448038   -1.188977    0.820944
   10          1             0        0.493982   -1.142094   -0.933772
   11          6             0        1.960926    0.131121    0.024810
   12          1             0        2.078670    0.729001    0.937059
   13          1             0        2.753885   -0.625551    0.017734
   14          1             0        2.130075    0.797470   -0.830223
 ---------------------------------------------------------------------
 SCF Done:  E(RB+HF-LYP) =  -158.457958857     A.U. after    7 cycles
    -- Stationary point found.
                          Input orientation:                          
 ---------------------------------------------------------------------
 Center     Atomic     Atomic              Coordinates (Angstroms)
 Number     Number      Type              X           Y           Z
 ---------------------------------------------------------------------
    1          1             0       -2.156405   -0.812100   -0.792294
    2          6             0       -1.957902   -0.130536    0.044411
    3          1             0       -2.043461   -0.712062    0.970714
    4          1             0       -2.751118    0.625873    0.051727
    5          6             0       -0.572032    0.511039   -0.078225
    6          1             0       -0.449713    1.188548    0.779329
    7          1             0       -0.493697    1.141265   -0.975654
    8          6             0        0.572032   -0.511039   -0.078225
    9          1             0        0.449714   -1.188548    0.779328
   10          1             0        0.493697   -1.141264   -0.975655
   11          6             0        1.957902    0.130536    0.044410
   12          1             0        2.043461    0.712061    0.970714
   13          1             0        2.751118   -0.625873    0.051726
   14          1             0        2.156405    0.812101   -0.792293
 ---------------------------------------------------------------------
 SCF Done:  E(RB+HF-LYP) =  -158.457348672     A.U. after   10 cycles
                          Input orientation:                          
 ---------------------------------------------------------------------
 Center     Atomic     Atomic              Coordinates (Angstroms)
 Number     Number      Type              X           Y           Z
 ---------------------------------------------------------------------
    1          1             0       -2.151084   -0.826572   -0.775927
    2          6             0       -1.958612   -0.129829    0.049554
    3          1             0       -2.049286   -0.694637    0.985543
    4          1             0       -2.752694    0.625631    0.037521
    5          6             0       -0.572473    0.511039   -0.073031
    6          1             0       -0.427151    1.209967    0.763647
    7          1             0       -0.519334    1.118955   -0.987299
    8          6             0        0.572473   -0.511039   -0.073031
    9          1             0        0.427151   -1.209968    0.763646
   10          1             0        0.519334   -1.118954   -0.987300
   11          6             0        1.958612    0.129829    0.049554
   12          1             0        2.049287    0.694636    0.985543
   13          1             0        2.752694   -0.625631    0.037520
   14          1             0        2.151084    0.826573   -0.775927
 ---------------------------------------------------------------------
 SCF Done:  E(RB+HF-LYP) =  -158.457716316     A.U. after   10 cycles
                          Input orientation:                          
 ---------------------------------------------------------------------
 Center     Atomic     Atomic              Coordinates (Angstroms)
 Number     Number      Type              X           Y           Z
 ---------------------------------------------------------------------
    1          1             0       -2.150127   -0.827735   -0.774837
    2          6             0       -1.958553   -0.129719    0.049886
    3          1             0       -2.050100   -0.693183    0.986527
    4          1             0       -2.752667    0.625661    0.036132
    5          6             0       -0.572473    0.511140   -0.072700
    6          1             0       -0.426585    1.211369    0.762785
    7          1             0       -0.520542    1.117894   -0.987785
    8          6             0        0.572473   -0.511140   -0.072701
    9          1             0        0.426586   -1.211370    0.762784
   10          1             0        0.520542   -1.117893   -0.987786
   11          6             0        1.958553    0.129719    0.049886
   12          1             0        2.050100    0.693182    0.986528
   13          1             0        2.752667   -0.625661    0.036131
   14          1             0        2.150127    0.827736   -0.774836
 ---------------------------------------------------------------------
 SCF Done:  E(RB+HF-LYP) =  -158.457717061     A.U. after    7 cycles
    -- Stationary point found.
                          Input orientation:                          
 ---------------------------------------------------------------------
 Center     Atomic     Atomic              Coordinates (Angstroms)
 Number     Number      Type              X           Y           Z
 ---------------------------------------------------------------------
    1          1             0       -2.174040   -0.841584   -0.735315
    2          6             0       -1.953707   -0.128638    0.069288
    3          1             0       -2.011337   -0.675031    1.018734
    4          1             0       -2.748481    0.626191    0.070178
    5          6             0       -0.573291    0.510195   -0.114355
    6          1             0       -0.429692    1.210789    0.721215
    7          1             0       -0.520732    1.116446   -1.029737
    8          6             0        0.573291   -0.510195   -0.114355
    9          1             0        0.429692   -1.210790    0.721214
   10          1             0        0.520732   -1.116445   -1.029738
   11          6             0        1.953707    0.128638    0.069288
   12          1             0        2.011337    0.675031    1.018734
   13          1             0        2.748481   -0.626191    0.070177
   14          1             0        2.174040    0.841585   -0.735314
 ---------------------------------------------------------------------
 SCF Done:  E(RB+HF-LYP) =  -158.456953782     A.U. after   10 cycles
                          Input orientation:                          
 ---------------------------------------------------------------------
 Center     Atomic     Atomic              Coordinates (Angstroms)
 Number     Number      Type              X           Y           Z
 ---------------------------------------------------------------------
    1          1             0       -2.168115   -0.856899   -0.717062
    2          6             0       -1.955354   -0.127638    0.074891
    3          1             0       -2.019823   -0.655571    1.034129
    4          1             0       -2.751739    0.625320    0.054140
    5          6             0       -0.573690    0.509992   -0.108699
    6          1             0       -0.406914    1.232916    0.703215
    7          1             0       -0.546029    1.091779   -1.040604
    8          6             0        0.573690   -0.509991   -0.108700
    9          1             0        0.406915   -1.232916    0.703213
   10          1             0        0.546029   -1.091778   -1.040606
   11          6             0        1.955354    0.127638    0.074891
   12          1             0        2.019823    0.655570    1.034129
   13          1             0        2.751739   -0.625320    0.054139
   14          1             0        2.168115    0.856899   -0.717062
 ---------------------------------------------------------------------
 SCF Done:  E(RB+HF-LYP) =  -158.457324087     A.U. after   10 cycles
                          Input orientation:                          
 ---------------------------------------------------------------------
 Center     Atomic     Atomic              Coordinates (Angstroms)
 Number     Number      Type              X           Y           Z
 ---------------------------------------------------------------------
    1          1             0       -2.167540   -0.855933   -0.717576
    2          6             0       -1.954534   -0.127304    0.074888
    3          1             0       -2.017782   -0.655625    1.033985
    4          1             0       -2.750606    0.625894    0.055167
    5          6             0       -0.573851    0.510528   -0.108667
    6          1             0       -0.407714    1.234075    0.702910
    7          1             0       -0.548748    1.092267   -1.040698
    8          6             0        0.573851   -0.510528   -0.108668
    9          1             0        0.407714   -1.234076    0.702909
   10          1             0        0.548748   -1.092266   -1.040699
   11          6             0        1.954534    0.127304    0.074888
   12          1             0        2.017782    0.655624    1.033986
   13          1             0        2.750606   -0.625894    0.055165
   14          1             0        2.167540    0.855934   -0.717576
 ---------------------------------------------------------------------
 SCF Done:  E(RB+HF-LYP) =  -158.457326693     A.U. after    7 cycles
    -- Stationary point found.
                          Input orientation:                          
 ---------------------------------------------------------------------
 Center     Atomic     Atomic              Coordinates (Angstroms)
 Number     Number      Type              X           Y           Z
 ---------------------------------------------------------------------
    1          1             0       -2.188732   -0.868288   -0.677313
    2          6             0       -1.947970   -0.125880    0.094203
    3          1             0       -1.976540   -0.637419    1.064080
    4          1             0       -2.744935    0.626648    0.089901
    5          6             0       -0.575090    0.509057   -0.150076
    6          1             0       -0.411489    1.232975    0.661654
    7          1             0       -0.549559    1.090236   -1.082440
    8          6             0        0.575090   -0.509057   -0.150076
    9          1             0        0.411489   -1.232976    0.661653
   10          1             0        0.549559   -1.090235   -1.082441
   11          6             0        1.947970    0.125880    0.094203
   12          1             0        1.976540    0.637418    1.064080
   13          1             0        2.744935   -0.626648    0.089900
   14          1             0        2.188731    0.868289   -0.677313
 ---------------------------------------------------------------------
 SCF Done:  E(RB+HF-LYP) =  -158.456427798     A.U. after   10 cycles
                          Input orientation:                          
 ---------------------------------------------------------------------
 Center     Atomic     Atomic              Coordinates (Angstroms)
 Number     Number      Type              X           Y           Z
 ---------------------------------------------------------------------
    1          1             0       -2.184370   -0.878854   -0.662075
    2          6             0       -1.949412   -0.124633    0.099650
    3          1             0       -1.982883   -0.621689    1.076728
    4          1             0       -2.747590    0.626365    0.079095
    5          6             0       -0.575932    0.509333   -0.144522
    6          1             0       -0.389497    1.254530    0.642640
    7          1             0       -0.578021    1.066441   -1.091508
    8          6             0        0.575932   -0.509333   -0.144522
    9          1             0        0.389497   -1.254531    0.642639
   10          1             0        0.578020   -1.066440   -1.091509
   11          6             0        1.949412    0.124633    0.099650
   12          1             0        1.982883    0.621688    1.076728
   13          1             0        2.747590   -0.626365    0.079094
   14          1             0        2.184370    0.878855   -0.662074
 ---------------------------------------------------------------------
 SCF Done:  E(RB+HF-LYP) =  -158.456808170     A.U. after   10 cycles
                          Input orientation:                          
 ---------------------------------------------------------------------
 Center     Atomic     Atomic              Coordinates (Angstroms)
 Number     Number      Type              X           Y           Z
 ---------------------------------------------------------------------
    1          1             0       -2.183172   -0.880100   -0.660590
    2          6             0       -1.949286   -0.124291    0.099928
    3          1             0       -1.983148   -0.619603    1.077878
    4          1             0       -2.747808    0.626317    0.077333
    5          6             0       -0.575847    0.509446   -0.144229
    6          1             0       -0.389875    1.256041    0.641715
    7          1             0       -0.578383    1.065155   -1.092026
    8          6             0        0.575847   -0.509446   -0.144230
    9          1             0        0.389875   -1.256041    0.641713
   10          1             0        0.578383   -1.065154   -1.092027
   11          6             0        1.949286    0.124291    0.099928
   12          1             0        1.983148    0.619602    1.077878
   13          1             0        2.747808   -0.626317    0.077332
   14          1             0        2.183172    0.880101   -0.660589
 ---------------------------------------------------------------------
 SCF Done:  E(RB+HF-LYP) =  -158.456808954     A.U. after    7 cycles
    -- Stationary point found.
                          Input orientation:                          
 ---------------------------------------------------------------------
 Center     Atomic     Atomic              Coordinates (Angstroms)
 Number     Number      Type              X           Y           Z
 ---------------------------------------------------------------------
    1          1             0       -2.200540   -0.892111   -0.618671
    2          6             0       -1.940666   -0.122280    0.119094
    3          1             0       -1.939183   -0.599553    1.106636
    4          1             0       -2.740397    0.627330    0.111090
    5          6             0       -0.577416    0.507632   -0.185333
    6          1             0       -0.394962    1.254944    0.600749
    7          1             0       -0.580031    1.062647   -1.133556
    8          6             0        0.577416   -0.507632   -0.185333
    9          1             0        0.394962   -1.254944    0.600748
   10          1             0        0.580031   -1.062646   -1.133557
   11          6             0        1.940666    0.122280    0.119093
   12          1             0        1.939183    0.599552    1.106636
   13          1             0        2.740397   -0.627330    0.111089
   14          1             0        2.200540    0.892112   -0.618671
 ---------------------------------------------------------------------
 SCF Done:  E(RB+HF-LYP) =  -158.455798975     A.U. after    9 cycles
                          Input orientation:                          
 ---------------------------------------------------------------------
 Center     Atomic     Atomic              Coordinates (Angstroms)
 Number     Number      Type              X           Y           Z
 ---------------------------------------------------------------------
    1          1             0       -2.194933   -0.902637   -0.602419
    2          6             0       -1.941698   -0.120568    0.124719
    3          1             0       -1.944958   -0.582495    1.119485
    4          1             0       -2.743152    0.626618    0.099711
    5          6             0       -0.577724    0.508232   -0.179672
    6          1             0       -0.374400    1.277269    0.579804
    7          1             0       -0.607094    1.038168   -1.141619
    8          6             0        0.577724   -0.508231   -0.179672
    9          1             0        0.374400   -1.277269    0.579802
   10          1             0        0.607094   -1.038167   -1.141620
   11          6             0        1.941698    0.120568    0.124719
   12          1             0        1.944958    0.582494    1.119485
   13          1             0        2.743152   -0.626618    0.099710
   14          1             0        2.194933    0.902638   -0.602419
 ---------------------------------------------------------------------
 SCF Done:  E(RB+HF-LYP) =  -158.456191175     A.U. after   10 cycles
                          Input orientation:                          
 ---------------------------------------------------------------------
 Center     Atomic     Atomic              Coordinates (Angstroms)
 Number     Number      Type              X           Y           Z
 ---------------------------------------------------------------------
    1          1             0       -2.195400   -0.902031   -0.602390
    2          6             0       -1.942234   -0.120247    0.125023
    3          1             0       -1.945496   -0.582448    1.119589
    4          1             0       -2.743845    0.627032    0.100321
    5          6             0       -0.578205    0.508171   -0.179249
    6          1             0       -0.374144    1.278546    0.578660
    7          1             0       -0.609888    1.036241   -1.141946
    8          6             0        0.578205   -0.508170   -0.179249
    9          1             0        0.374144   -1.278547    0.578659
   10          1             0        0.609888   -1.036240   -1.141947
   11          6             0        1.942234    0.120247    0.125023
   12          1             0        1.945497    0.582447    1.119589
   13          1             0        2.743846   -0.627032    0.100320
   14          1             0        2.195399    0.902032   -0.602389
 ---------------------------------------------------------------------
 SCF Done:  E(RB+HF-LYP) =  -158.456193301     A.U. after    7 cycles
    -- Stationary point found.
                          Input orientation:                          
 ---------------------------------------------------------------------
 Center     Atomic     Atomic              Coordinates (Angstroms)
 Number     Number      Type              X           Y           Z
 ---------------------------------------------------------------------
    1          1             0       -2.209790   -0.912875   -0.559717
    2          6             0       -1.931771   -0.117879    0.144009
    3          1             0       -1.899250   -0.561940    1.146372
    4          1             0       -2.734594    0.628448    0.134243
    5          6             0       -0.580201    0.505875   -0.219962
    6          1             0       -0.380193    1.277081    0.538189
    7          1             0       -0.612360    1.033041   -1.183127
    8          6             0        0.580201   -0.505875   -0.219962
    9          1             0        0.380194   -1.277081    0.538188
   10          1             0        0.612360   -1.033039   -1.183128
   11          6             0        1.931771    0.117880    0.144009
   12          1             0        1.899250    0.561939    1.146372
   13          1             0        2.734594   -0.628448    0.134242
   14          1             0        2.209790    0.912876   -0.559716
 ---------------------------------------------------------------------
 SCF Done:  E(RB+HF-LYP) =  -158.455112943     A.U. after    9 cycles
                          Input orientation:                          
 ---------------------------------------------------------------------
 Center     Atomic     Atomic              Coordinates (Angstroms)
 Number     Number      Type              X           Y           Z
 ---------------------------------------------------------------------
    1          1             0       -2.206380   -0.919391   -0.546275
    2          6             0       -1.932018   -0.116597    0.150029
    3          1             0       -1.904119   -0.549623    1.157379
    4          1             0       -2.735113    0.629203    0.128183
    5          6             0       -0.580725    0.506779   -0.213888
    6          1             0       -0.359643    1.300081    0.515011
    7          1             0       -0.642331    1.005036   -1.190432
    8          6             0        0.580724   -0.506779   -0.213888
    9          1             0        0.359643   -1.300082    0.515010
   10          1             0        0.642331   -1.005034   -1.190432
   11          6             0        1.932018    0.116597    0.150029
   12          1             0        1.904120    0.549621    1.157379
   13          1             0        2.735113   -0.629203    0.128182
   14          1             0        2.206380    0.919392   -0.546274
 ---------------------------------------------------------------------
 SCF Done:  E(RB+HF-LYP) =  -158.455517752     A.U. after   10 cycles
                          Input orientation:                          
 ---------------------------------------------------------------------
 Center     Atomic     Atomic              Coordinates (Angstroms)
 Number     Number      Type              X           Y           Z
 ---------------------------------------------------------------------
    1          1             0       -2.206136   -0.920428   -0.544465
    2          6             0       -1.933804   -0.115565    0.150134
    3          1             0       -1.905850   -0.546510    1.158258
    4          1             0       -2.738471    0.628581    0.126118
    5          6             0       -0.581305    0.506486   -0.213600
    6          1             0       -0.360590    1.300977    0.513899
    7          1             0       -0.643445    1.004627   -1.190335
    8          6             0        0.581305   -0.506486   -0.213601
    9          1             0        0.360591   -1.300977    0.513897
   10          1             0        0.643445   -1.004626   -1.190336
   11          6             0        1.933804    0.115565    0.150134
   12          1             0        1.905850    0.546509    1.158258
   13          1             0        2.738471   -0.628581    0.126117
   14          1             0        2.206136    0.920428   -0.544464
 ---------------------------------------------------------------------
 SCF Done:  E(RB+HF-LYP) =  -158.455521254     A.U. after    7 cycles
    -- Stationary point found.
                          Input orientation:                          
 ---------------------------------------------------------------------
 Center     Atomic     Atomic              Coordinates (Angstroms)
 Number     Number      Type              X           Y           Z
 ---------------------------------------------------------------------
    1          1             0       -2.216594   -0.930862   -0.500447
    2          6             0       -1.921399   -0.112695    0.168904
    3          1             0       -1.857377   -0.524414    1.183494
    4          1             0       -2.727512    0.630159    0.158978
    5          6             0       -0.583523    0.503722   -0.253859
    6          1             0       -0.367444    1.299252    0.473954
    7          1             0       -0.646383    1.000987   -1.231016
    8          6             0        0.583523   -0.503722   -0.253859
    9          1             0        0.367444   -1.299252    0.473953
   10          1             0        0.646383   -1.000986   -1.231017
   11          6             0        1.921399    0.112695    0.168904
   12          1             0        1.857378    0.524413    1.183494
   13          1             0        2.727512   -0.630159    0.158977
   14          1             0        2.216594    0.930862   -0.500447
 ---------------------------------------------------------------------
 SCF Done:  E(RB+HF-LYP) =  -158.454411557     A.U. after   10 cycles
                          Input orientation:                          
 ---------------------------------------------------------------------
 Center     Atomic     Atomic              Coordinates (Angstroms)
 Number     Number      Type              X           Y           Z
 ---------------------------------------------------------------------
    1          1             0       -2.211504   -0.937742   -0.485507
    2          6             0       -1.922843   -0.110072    0.174845
    3          1             0       -1.862554   -0.508775    1.194790
    4          1             0       -2.731193    0.629984    0.151059
    5          6             0       -0.584041    0.504456   -0.247713
    6          1             0       -0.347824    1.321934    0.448764
    7          1             0       -0.676711    0.973422   -1.236229
    8          6             0        0.584041   -0.504456   -0.247714
    9          1             0        0.347824   -1.321934    0.448763
   10          1             0        0.676711   -0.973421   -1.236230
   11          6             0        1.922843    0.110072    0.174844
   12          1             0        1.862554    0.508774    1.194790
   13          1             0        2.731193   -0.629984    0.151058
   14          1             0        2.211504    0.937743   -0.485506
 ---------------------------------------------------------------------
 SCF Done:  E(RB+HF-LYP) =  -158.454835693     A.U. after   13 cycles
                          Input orientation:                          
 ---------------------------------------------------------------------
 Center     Atomic     Atomic              Coordinates (Angstroms)
 Number     Number      Type              X           Y           Z
 ---------------------------------------------------------------------
    1          1             0       -2.212121   -0.937366   -0.485384
    2          6             0       -1.923020   -0.110101    0.175308
    3          1             0       -1.863522   -0.509177    1.195169
    4          1             0       -2.731029    0.630381    0.151644
    5          6             0       -0.584233    0.504534   -0.247256
    6          1             0       -0.347784    1.323552    0.447268
    7          1             0       -0.678044    0.971097   -1.236740
    8          6             0        0.584233   -0.504533   -0.247257
    9          1             0        0.347784   -1.323552    0.447267
   10          1             0        0.678044   -0.971095   -1.236741
   11          6             0        1.923020    0.110101    0.175308
   12          1             0        1.863522    0.509176    1.195170
   13          1             0        2.731029   -0.630381    0.151643
   14          1             0        2.212121    0.937366   -0.485384
 ---------------------------------------------------------------------
 SCF Done:  E(RB+HF-LYP) =  -158.454837019     A.U. after    7 cycles
    -- Stationary point found.
                          Input orientation:                          
 ---------------------------------------------------------------------
 Center     Atomic     Atomic              Coordinates (Angstroms)
 Number     Number      Type              X           Y           Z
 ---------------------------------------------------------------------
    1          1             0       -2.220262   -0.946422   -0.440879
    2          6             0       -1.909354   -0.106737    0.193804
    3          1             0       -1.813503   -0.486710    1.218260
    4          1             0       -2.718886    0.632446    0.184821
    5          6             0       -0.587133    0.501205   -0.286941
    6          1             0       -0.356269    1.321516    0.407889
    7          1             0       -0.681897    0.966465   -1.276945
    8          6             0        0.587133   -0.501205   -0.286942
    9          1             0        0.356269   -1.321516    0.407888
   10          1             0        0.681897   -0.966463   -1.276946
   11          6             0        1.909354    0.106737    0.193804
   12          1             0        1.813503    0.486709    1.218260
   13          1             0        2.718886   -0.632446    0.184820
   14          1             0        2.220262    0.946423   -0.440879
 ---------------------------------------------------------------------
 SCF Done:  E(RB+HF-LYP) =  -158.453743591     A.U. after   10 cycles
                          Input orientation:                          
 ---------------------------------------------------------------------
 Center     Atomic     Atomic              Coordinates (Angstroms)
 Number     Number      Type              X           Y           Z
 ---------------------------------------------------------------------
    1          1             0       -2.218654   -0.949174   -0.429428
    2          6             0       -1.911547   -0.104244    0.199745
    3          1             0       -1.818894   -0.476281    1.227378
    4          1             0       -2.722545    0.633586    0.182544
    5          6             0       -0.588500    0.501778   -0.280534
    6          1             0       -0.338708    1.342884    0.381303
    7          1             0       -0.712465    0.936237   -1.281001
    8          6             0        0.588499   -0.501778   -0.280534
    9          1             0        0.338708   -1.342884    0.381302
   10          1             0        0.712465   -0.936236   -1.281001
   11          6             0        1.911547    0.104244    0.199745
   12          1             0        1.818894    0.476280    1.227378
   13          1             0        2.722546   -0.633586    0.182542
   14          1             0        2.218654    0.949175   -0.429428
 ---------------------------------------------------------------------
 SCF Done:  E(RB+HF-LYP) =  -158.454184222     A.U. after   10 cycles
                          Input orientation:                          
 ---------------------------------------------------------------------
 Center     Atomic     Atomic              Coordinates (Angstroms)
 Number     Number      Type              X           Y           Z
 ---------------------------------------------------------------------
    1          1             0       -2.215861   -0.951165   -0.426572
    2          6             0       -1.910907   -0.103783    0.200543
    3          1             0       -1.819500   -0.472530    1.229501
    4          1             0       -2.722488    0.632959    0.179470
    5          6             0       -0.587846    0.502270   -0.279978
    6          1             0       -0.337111    1.346204    0.378391
    7          1             0       -0.714084    0.934051   -1.281346
    8          6             0        0.587846   -0.502269   -0.279978
    9          1             0        0.337111   -1.346204    0.378389
   10          1             0        0.714083   -0.934050   -1.281347
   11          6             0        1.910907    0.103783    0.200543
   12          1             0        1.819501    0.472529    1.229502
   13          1             0        2.722488   -0.632960    0.179469
   14          1             0        2.215862    0.951166   -0.426572
 ---------------------------------------------------------------------
 SCF Done:  E(RB+HF-LYP) =  -158.454188202     A.U. after    7 cycles
    -- Stationary point found.
                          Input orientation:                          
 ---------------------------------------------------------------------
 Center     Atomic     Atomic              Coordinates (Angstroms)
 Number     Number      Type              X           Y           Z
 ---------------------------------------------------------------------
    1          1             0       -2.220512   -0.959598   -0.381145
    2          6             0       -1.895576   -0.099939    0.218738
    3          1             0       -1.767746   -0.448758    1.250824
    4          1             0       -2.708782    0.635277    0.211738
    5          6             0       -0.591024    0.498419   -0.319087
    6          1             0       -0.346616    1.343880    0.339751
    7          1             0       -0.718592    0.928991   -1.320811
    8          6             0        0.591024   -0.498418   -0.319087
    9          1             0        0.346616   -1.343880    0.339749
   10          1             0        0.718592   -0.928990   -1.320812
   11          6             0        1.895576    0.099939    0.218738
   12          1             0        1.767747    0.448757    1.250824
   13          1             0        2.708782   -0.635277    0.211737
   14          1             0        2.220512    0.959599   -0.381144
 ---------------------------------------------------------------------
 SCF Done:  E(RB+HF-LYP) =  -158.453157249     A.U. after   10 cycles
                          Input orientation:                          
 ---------------------------------------------------------------------
 Center     Atomic     Atomic              Coordinates (Angstroms)
 Number     Number      Type              X           Y           Z
 ---------------------------------------------------------------------
    1          1             0       -2.215585   -0.962846   -0.369187
    2          6             0       -1.896645   -0.097115    0.224998
    3          1             0       -1.771866   -0.436728    1.260413
    4          1             0       -2.711715    0.635834    0.207941
    5          6             0       -0.590987    0.499415   -0.312803
    6          1             0       -0.326982    1.365410    0.310944
    7          1             0       -0.750515    0.899657   -1.322300
    8          6             0        0.590987   -0.499416   -0.312801
    9          1             0        0.326982   -1.365413    0.310944
   10          1             0        0.750515   -0.899655   -1.322299
   11          6             0        1.896645    0.097115    0.224998
   12          1             0        1.771866    0.436726    1.260413
   13          1             0        2.711716   -0.635832    0.207938
   14          1             0        2.215583    0.962849   -0.369186
 ---------------------------------------------------------------------
 SCF Done:  E(RB+HF-LYP) =  -158.453613926     A.U. after   13 cycles
                          Input orientation:                          
 ---------------------------------------------------------------------
 Center     Atomic     Atomic              Coordinates (Angstroms)
 Number     Number      Type              X           Y           Z
 ---------------------------------------------------------------------
    1          1             0       -2.216105   -0.962637   -0.368069
    2          6             0       -1.896903   -0.096806    0.225735
    3          1             0       -1.773116   -0.436012    1.261489
    4          1             0       -2.711838    0.636325    0.208182
    5          6             0       -0.591279    0.499558   -0.311977
    6          1             0       -0.327836    1.368232    0.307904
    7          1             0       -0.751482    0.895030   -1.323255
    8          6             0        0.591279   -0.499557   -0.311978
    9          1             0        0.327836   -1.368232    0.307903
   10          1             0        0.751482   -0.895029   -1.323256
   11          6             0        1.896903    0.096806    0.225735
   12          1             0        1.773117    0.436011    1.261489
   13          1             0        2.711838   -0.636325    0.208181
   14          1             0        2.216105    0.962637   -0.368069
 ---------------------------------------------------------------------
 SCF Done:  E(RB+HF-LYP) =  -158.453617613     A.U. after   11 cycles
    -- Stationary point found.
                          Input orientation:                          
 ---------------------------------------------------------------------
 Center     Atomic     Atomic              Coordinates (Angstroms)
 Number     Number      Type              X           Y           Z
 ---------------------------------------------------------------------
    1          1             0       -2.217985   -0.970048   -0.322033
    2          6             0       -1.880129   -0.092466    0.243604
    3          1             0       -1.720034   -0.411456    1.280899
    4          1             0       -2.696726    0.639043    0.240185
    5          6             0       -0.595032    0.495195   -0.350352
    6          1             0       -0.338778    1.365728    0.269879
    7          1             0       -0.756440    0.888820   -1.362172
    8          6             0        0.595032   -0.495194   -0.350353
    9          1             0        0.338779   -1.365729    0.269877
   10          1             0        0.756439   -0.888819   -1.362173
   11          6             0        1.880129    0.092466    0.243603
   12          1             0        1.720034    0.411454    1.280899
   13          1             0        2.696726   -0.639043    0.240184
   14          1             0        2.217984    0.970049   -0.322033
 ---------------------------------------------------------------------
 SCF Done:  E(RB+HF-LYP) =  -158.452689684     A.U. after   10 cycles
                          Input orientation:                          
 ---------------------------------------------------------------------
 Center     Atomic     Atomic              Coordinates (Angstroms)
 Number     Number      Type              X           Y           Z
 ---------------------------------------------------------------------
    1          1             0       -2.214682   -0.971385   -0.311147
    2          6             0       -1.881368   -0.089416    0.249865
    3          1             0       -1.724607   -0.401345    1.289923
    4          1             0       -2.699883    0.639987    0.239291
    5          6             0       -0.595733    0.496467   -0.343813
    6          1             0       -0.320328    1.386689    0.238517
    7          1             0       -0.787745    0.856615   -1.362632
    8          6             0        0.595732   -0.496469   -0.343810
    9          1             0        0.320329   -1.386693    0.238518
   10          1             0        0.787745   -0.856613   -1.362629
   11          6             0        1.881368    0.089417    0.249865
   12          1             0        1.724607    0.401341    1.289923
   13          1             0        2.699886   -0.639984    0.239287
   14          1             0        2.214680    0.971389   -0.311145
 ---------------------------------------------------------------------
 SCF Done:  E(RB+HF-LYP) =  -158.453160174     A.U. after   13 cycles
                          Input orientation:                          
 ---------------------------------------------------------------------
 Center     Atomic     Atomic              Coordinates (Angstroms)
 Number     Number      Type              X           Y           Z
 ---------------------------------------------------------------------
    1          1             0       -2.213320   -0.971875   -0.309610
    2          6             0       -1.881040   -0.088985    0.250700
    3          1             0       -1.724992   -0.399417    1.291249
    4          1             0       -2.699713    0.640154    0.238083
    5          6             0       -0.595171    0.496634   -0.343129
    6          1             0       -0.320106    1.389433    0.235579
    7          1             0       -0.789138    0.853070   -1.362862
    8          6             0        0.595171   -0.496633   -0.343130
    9          1             0        0.320106   -1.389432    0.235577
   10          1             0        0.789138   -0.853068   -1.362864
   11          6             0        1.881040    0.088984    0.250700
   12          1             0        1.724992    0.399417    1.291249
   13          1             0        2.699713   -0.640155    0.238083
   14          1             0        2.213320    0.971875   -0.309610
 ---------------------------------------------------------------------
 SCF Done:  E(RB+HF-LYP) =  -158.453163619     A.U. after   11 cycles
    -- Stationary point found.
                          Input orientation:                          
 ---------------------------------------------------------------------
 Center     Atomic     Atomic              Coordinates (Angstroms)
 Number     Number      Type              X           Y           Z
 ---------------------------------------------------------------------
    1          1             0       -2.212372   -0.978422   -0.263030
    2          6             0       -1.862925   -0.084223    0.268248
    3          1             0       -1.670726   -0.373892    1.308796
    4          1             0       -2.683012    0.643426    0.269273
    5          6             0       -0.599209    0.491607   -0.380753
    6          1             0       -0.332651    1.386716    0.198383
    7          1             0       -0.794825    0.845936   -1.400909
    8          6             0        0.599209   -0.491607   -0.380753
    9          1             0        0.332651   -1.386717    0.198382
   10          1             0        0.794825   -0.845935   -1.400909
   11          6             0        1.862925    0.084223    0.268248
   12          1             0        1.670726    0.373891    1.308796
   13          1             0        2.683012   -0.643426    0.269271
   14          1             0        2.212372    0.978422   -0.263029
 ---------------------------------------------------------------------
 SCF Done:  E(RB+HF-LYP) =  -158.452372837     A.U. after   10 cycles
                          Input orientation:                          
 ---------------------------------------------------------------------
 Center     Atomic     Atomic              Coordinates (Angstroms)
 Number     Number      Type              X           Y           Z
 ---------------------------------------------------------------------
    1          1             0       -2.210815   -0.978500   -0.253687
    2          6             0       -1.864476   -0.081677    0.274746
    3          1             0       -1.675500   -0.365811    1.317328
    4          1             0       -2.684575    0.645817    0.269030
    5          6             0       -0.598825    0.492220   -0.374418
    6          1             0       -0.315889    1.406254    0.165765
    7          1             0       -0.827619    0.812712   -1.398763
    8          6             0        0.598823   -0.492226   -0.374411
    9          1             0        0.315889   -1.406265    0.165768
   10          1             0        0.827621   -0.812710   -1.398756
   11          6             0        1.864476    0.081680    0.274744
   12          1             0        1.675500    0.365804    1.317328
   13          1             0        2.684582   -0.645807    0.269022
   14          1             0        2.210809    0.978511   -0.253682
 ---------------------------------------------------------------------
 SCF Done:  E(RB+HF-LYP) =  -158.452849805     A.U. after   13 cycles
                          Input orientation:                          
 ---------------------------------------------------------------------
 Center     Atomic     Atomic              Coordinates (Angstroms)
 Number     Number      Type              X           Y           Z
 ---------------------------------------------------------------------
    1          1             0       -2.208657   -0.979195   -0.251506
    2          6             0       -1.863958   -0.080865    0.275420
    3          1             0       -1.675953   -0.362961    1.318816
    4          1             0       -2.685202    0.645451    0.267911
    5          6             0       -0.598808    0.492680   -0.373579
    6          1             0       -0.315117    1.408899    0.162305
    7          1             0       -0.827805    0.808532   -1.399357
    8          6             0        0.598808   -0.492679   -0.373581
    9          1             0        0.315117   -1.408897    0.162303
   10          1             0        0.827804   -0.808530   -1.399359
   11          6             0        1.863957    0.080865    0.275420
   12          1             0        1.675953    0.362961    1.318816
   13          1             0        2.685201   -0.645452    0.267911
   14          1             0        2.208658    0.979194   -0.251507
 ---------------------------------------------------------------------
 SCF Done:  E(RB+HF-LYP) =  -158.452854533     A.U. after   11 cycles
    -- Stationary point found.
                          Input orientation:                          
 ---------------------------------------------------------------------
 Center     Atomic     Atomic              Coordinates (Angstroms)
 Number     Number      Type              X           Y           Z
 ---------------------------------------------------------------------
    1          1             0       -2.203959   -0.985237   -0.203839
    2          6             0       -1.844287   -0.075362    0.292535
    3          1             0       -1.620595   -0.335444    1.334712
    4          1             0       -2.667610    0.648632    0.297848
    5          6             0       -0.603380    0.487317   -0.410342
    6          1             0       -0.328677    1.406148    0.125789
    7          1             0       -0.833458    0.800511   -1.436695
    8          6             0        0.603379   -0.487317   -0.410342
    9          1             0        0.328677   -1.406148    0.125788
   10          1             0        0.833458   -0.800510   -1.436695
   11          6             0        1.844287    0.075362    0.292534
   12          1             0        1.620595    0.335443    1.334712
   13          1             0        2.667611   -0.648631    0.297847
   14          1             0        2.203959    0.985238   -0.203838
 ---------------------------------------------------------------------
 SCF Done:  E(RB+HF-LYP) =  -158.452224058     A.U. after   10 cycles
                          Input orientation:                          
 ---------------------------------------------------------------------
 Center     Atomic     Atomic              Coordinates (Angstroms)
 Number     Number      Type              X           Y           Z
 ---------------------------------------------------------------------
    1          1             0       -2.197797   -0.986655   -0.192204
    2          6             0       -1.844038   -0.071479    0.298562
    3          1             0       -1.624141   -0.323066    1.343784
    4          1             0       -2.670967    0.648360    0.296122
    5          6             0       -0.603256    0.489370   -0.404225
    6          1             0       -0.309656    1.424969    0.091270
    7          1             0       -0.862976    0.768289   -1.433314
    8          6             0        0.603253   -0.489383   -0.404211
    9          1             0        0.309654   -1.424992    0.091275
   10          1             0        0.862980   -0.768286   -1.433299
   11          6             0        1.844040    0.071486    0.298558
   12          1             0        1.624139    0.323052    1.343781
   13          1             0        2.670980   -0.648339    0.296108
   14          1             0        2.197786    0.986677   -0.192194
 ---------------------------------------------------------------------
 SCF Done:  E(RB+HF-LYP) =  -158.452706829     A.U. after   10 cycles
                          Input orientation:                          
 ---------------------------------------------------------------------
 Center     Atomic     Atomic              Coordinates (Angstroms)
 Number     Number      Type              X           Y           Z
 ---------------------------------------------------------------------
    1          1             0       -2.198170   -0.986205   -0.191513
    2          6             0       -1.844224   -0.071353    0.299577
    3          1             0       -1.624919   -0.322818    1.344862
    4          1             0       -2.670220    0.649633    0.296044
    5          6             0       -0.602627    0.489023   -0.403333
    6          1             0       -0.310098    1.427241    0.087541
    7          1             0       -0.865060    0.762770   -1.433174
    8          6             0        0.602627   -0.489022   -0.403334
    9          1             0        0.310097   -1.427236    0.087544
   10          1             0        0.865059   -0.762772   -1.433175
   11          6             0        1.844224    0.071353    0.299579
   12          1             0        1.624922    0.322814    1.344866
   13          1             0        2.670221   -0.649632    0.296040
   14          1             0        2.198167    0.986206   -0.191510
 ---------------------------------------------------------------------
 SCF Done:  E(RB+HF-LYP) =  -158.452713836     A.U. after    8 cycles
    -- Stationary point found.
                          Input orientation:                          
 ---------------------------------------------------------------------
 Center     Atomic     Atomic              Coordinates (Angstroms)
 Number     Number      Type              X           Y           Z
 ---------------------------------------------------------------------
    1          1             0       -2.191436   -0.991068   -0.143716
    2          6             0       -1.823733   -0.065566    0.316359
    3          1             0       -1.569147   -0.294775    1.358828
    4          1             0       -2.651081    0.653814    0.325239
    5          6             0       -0.607474    0.482700   -0.439143
    6          1             0       -0.325902    1.424130    0.051941
    7          1             0       -0.871495    0.753042   -1.469501
    8          6             0        0.607474   -0.482700   -0.439142
    9          1             0        0.325901   -1.424131    0.051941
   10          1             0        0.871495   -0.753041   -1.469501
   11          6             0        1.823733    0.065567    0.316358
   12          1             0        1.569147    0.294773    1.358828
   13          1             0        2.651082   -0.653813    0.325237
   14          1             0        2.191435    0.991069   -0.143715
 ---------------------------------------------------------------------
 SCF Done:  E(RB+HF-LYP) =  -158.452265331     A.U. after   13 cycles
                          Input orientation:                          
 ---------------------------------------------------------------------
 Center     Atomic     Atomic              Coordinates (Angstroms)
 Number     Number      Type              X           Y           Z
 ---------------------------------------------------------------------
    1          1             0       -2.187847   -0.991706   -0.132842
    2          6             0       -1.824780   -0.062416    0.322563
    3          1             0       -1.574586   -0.283551    1.367862
    4          1             0       -2.652982    0.655888    0.322787
    5          6             0       -0.606440    0.483264   -0.433046
    6          1             0       -0.310066    1.440589    0.016481
    7          1             0       -0.901442    0.718057   -1.463787
    8          6             0        0.606433   -0.483283   -0.433035
    9          1             0        0.310069   -1.440632    0.016465
   10          1             0        0.901451   -0.718038   -1.463773
   11          6             0        1.824782    0.062424    0.322551
   12          1             0        1.574569    0.283553    1.367842
   13          1             0        2.652992   -0.655871    0.322792
   14          1             0        2.187848    0.991723   -0.132845
 ---------------------------------------------------------------------
 SCF Done:  E(RB+HF-LYP) =  -158.452752045     A.U. after   10 cycles
                          Input orientation:                          
 ---------------------------------------------------------------------
 Center     Atomic     Atomic              Coordinates (Angstroms)
 Number     Number      Type              X           Y           Z
 ---------------------------------------------------------------------
    1          1             0       -2.185796   -0.991816   -0.131195
    2          6             0       -1.823839   -0.061533    0.323347
    3          1             0       -1.574337   -0.281517    1.369081
    4          1             0       -2.653356    0.655363    0.322641
    5          6             0       -0.606258    0.483987   -0.432191
    6          1             0       -0.308396    1.443380    0.012006
    7          1             0       -0.902537    0.713778   -1.463674
    8          6             0        0.606259   -0.483982   -0.432197
    9          1             0        0.308399   -1.443375    0.011999
   10          1             0        0.902533   -0.713774   -1.463683
   11          6             0        1.823839    0.061531    0.323349
   12          1             0        1.574336    0.281525    1.369081
   13          1             0        2.653350   -0.655372    0.322650
   14          1             0        2.185803    0.991805   -0.131201
 ---------------------------------------------------------------------
 SCF Done:  E(RB+HF-LYP) =  -158.452757704     A.U. after   11 cycles
    -- Stationary point found.
                          Input orientation:                          
 ---------------------------------------------------------------------
 Center     Atomic     Atomic              Coordinates (Angstroms)
 Number     Number      Type              X           Y           Z
 ---------------------------------------------------------------------
    1          1             0       -2.175663   -0.995789   -0.082980
    2          6             0       -1.801887   -0.055070    0.339584
    3          1             0       -1.517459   -0.252116    1.381036
    4          1             0       -2.633445    0.659391    0.350998
    5          6             0       -0.611560    0.477315   -0.467096
    6          1             0       -0.325187    1.440011   -0.022466
    7          1             0       -0.908900    0.703545   -1.499067
    8          6             0        0.611559   -0.477316   -0.467096
    9          1             0        0.325187   -1.440013   -0.022467
   10          1             0        0.908901   -0.703544   -1.499067
   11          6             0        1.801887    0.055071    0.339583
   12          1             0        1.517459    0.252115    1.381035
   13          1             0        2.633446   -0.659389    0.350997
   14          1             0        2.175663    0.995791   -0.082979
 ---------------------------------------------------------------------
 SCF Done:  E(RB+HF-LYP) =  -158.452488720     A.U. after   13 cycles
                          Input orientation:                          
 ---------------------------------------------------------------------
 Center     Atomic     Atomic              Coordinates (Angstroms)
 Number     Number      Type              X           Y           Z
 ---------------------------------------------------------------------
    1          1             0       -2.169711   -0.995918   -0.072319
    2          6             0       -1.800921   -0.051126    0.345659
    3          1             0       -1.520510   -0.240546    1.389555
    4          1             0       -2.635694    0.659699    0.349606
    5          6             0       -0.610151    0.478918   -0.461150
    6          1             0       -0.306941    1.455467   -0.059990
    7          1             0       -0.937413    0.669171   -1.491385
    8          6             0        0.610145   -0.478961   -0.461114
    9          1             0        0.306931   -1.455526   -0.059972
   10          1             0        0.937439   -0.669182   -1.491334
   11          6             0        1.800922    0.051148    0.345642
   12          1             0        1.520502    0.240490    1.389542
   13          1             0        2.635740   -0.659627    0.349552
   14          1             0        2.169664    0.995994   -0.072278
 ---------------------------------------------------------------------
 SCF Done:  E(RB+HF-LYP) =  -158.452973874     A.U. after   10 cycles
                          Input orientation:                          
 ---------------------------------------------------------------------
 Center     Atomic     Atomic              Coordinates (Angstroms)
 Number     Number      Type              X           Y           Z
 ---------------------------------------------------------------------
    1          1             0       -2.169785   -0.995891   -0.071035
    2          6             0       -1.801379   -0.050850    0.346374
    3          1             0       -1.522024   -0.239140    1.390806
    4          1             0       -2.635505    0.660681    0.348746
    5          6             0       -0.609920    0.478734   -0.460410
    6          1             0       -0.307853    1.457279   -0.063457
    7          1             0       -0.938719    0.664452   -1.491015
    8          6             0        0.609922   -0.478725   -0.460417
    9          1             0        0.307852   -1.457265   -0.063457
   10          1             0        0.938713   -0.664450   -1.491025
   11          6             0        1.801379    0.050845    0.346378
   12          1             0        1.522029    0.239148    1.390811
   13          1             0        2.635497   -0.660695    0.348754
   14          1             0        2.169794    0.995876   -0.071040
 ---------------------------------------------------------------------
 SCF Done:  E(RB+HF-LYP) =  -158.452977434     A.U. after   11 cycles
    -- Stationary point found.
                          Input orientation:                          
 ---------------------------------------------------------------------
 Center     Atomic     Atomic              Coordinates (Angstroms)
 Number     Number      Type              X           Y           Z
 ---------------------------------------------------------------------
    1          1             0       -2.156699   -0.999108   -0.022111
    2          6             0       -1.778675   -0.043820    0.362115
    3          1             0       -1.465282   -0.207793    1.401062
    4          1             0       -2.614891    0.665132    0.375418
    5          6             0       -0.615631    0.471304   -0.494233
    6          1             0       -0.326478    1.453585   -0.096880
    7          1             0       -0.945265    0.652654   -1.525365
    8          6             0        0.615631   -0.471306   -0.494232
    9          1             0        0.326478   -1.453589   -0.096880
   10          1             0        0.945266   -0.652653   -1.525363
   11          6             0        1.778675    0.043822    0.362114
   12          1             0        1.465282    0.207791    1.401061
   13          1             0        2.614893   -0.665128    0.375416
   14          1             0        2.156697    0.999112   -0.022109
 ---------------------------------------------------------------------
 SCF Done:  E(RB+HF-LYP) =  -158.452872462     A.U. after   13 cycles
                          Input orientation:                          
 ---------------------------------------------------------------------
 Center     Atomic     Atomic              Coordinates (Angstroms)
 Number     Number      Type              X           Y           Z
 ---------------------------------------------------------------------
    1          1             0       -2.149967   -0.999991   -0.009697
    2          6             0       -1.778915   -0.039721    0.367990
    3          1             0       -1.471113   -0.192495    1.410365
    4          1             0       -2.617591    0.666336    0.370394
    5          6             0       -0.614052    0.472023   -0.488199
    6          1             0       -0.310127    1.466761   -0.135267
    7          1             0       -0.972962    0.616165   -1.515581
    8          6             0        0.614040   -0.472122   -0.488147
    9          1             0        0.310139   -1.466910   -0.135282
   10          1             0        0.973022   -0.616165   -1.515499
   11          6             0        1.778916    0.039770    0.367947
   12          1             0        1.471065    0.192418    1.410310
   13          1             0        2.617666   -0.666198    0.370325
   14          1             0        2.149880    1.000129   -0.009646
 ---------------------------------------------------------------------
 SCF Done:  E(RB+HF-LYP) =  -158.453349177     A.U. after   13 cycles
                          Input orientation:                          
 ---------------------------------------------------------------------
 Center     Atomic     Atomic              Coordinates (Angstroms)
 Number     Number      Type              X           Y           Z
 ---------------------------------------------------------------------
    1          1             0       -2.149873   -0.999444   -0.009351
    2          6             0       -1.778230   -0.039319    0.368613
    3          1             0       -1.470423   -0.192691    1.410858
    4          1             0       -2.617338    0.666256    0.371459
    5          6             0       -0.613753    0.472614   -0.487758
    6          1             0       -0.310052    1.468726   -0.138567
    7          1             0       -0.973587    0.613515   -1.515238
    8          6             0        0.613756   -0.472596   -0.487772
    9          1             0        0.310054   -1.468700   -0.138570
   10          1             0        0.973573   -0.613508   -1.515260
   11          6             0        1.778231    0.039309    0.368620
   12          1             0        1.470426    0.192713    1.410864
   13          1             0        2.617322   -0.666287    0.371482
   14          1             0        2.149895    0.999413   -0.009367
[...]
    9          1             0        1.053034    0.600584   -1.092004
   10          1             0        0.993448    0.862167    0.641702
   11          6             0        1.591009   -1.132860    0.099959
   12          1             0        1.391320   -1.898403   -0.660546
   13          1             0        2.665256   -0.915918    0.077276
   14          1             0        1.358829   -1.571465    1.078003
 ---------------------------------------------------------------------
 SCF Done:  E(RB+HF-LYP) =  -158.456808953     A.U. after    7 cycles
    -- Stationary point found.
                          Input orientation:                          
 ---------------------------------------------------------------------
 Center     Atomic     Atomic              Coordinates (Angstroms)
 Number     Number      Type              X           Y           Z
 ---------------------------------------------------------------------
    1          1             0       -1.384002    1.609625    1.047827
    2          6             0       -1.595773    1.137566    0.080694
    3          1             0       -1.380448    1.876996   -0.701193
    4          1             0       -2.669259    0.919024    0.043098
    5          6             0       -0.757422   -0.131836   -0.102883
    6          1             0       -1.052300   -0.603071   -1.050599
    7          1             0       -0.989597   -0.865598    0.682848
    8          6             0        0.757458    0.131871   -0.102833
    9          1             0        1.052439    0.603129   -1.050509
   10          1             0        0.989617    0.865590    0.682941
   11          6             0        1.595736   -1.137588    0.080746
   12          1             0        1.380327   -1.877014   -0.701118
   13          1             0        2.669235   -0.919105    0.043088
   14          1             0        1.383988   -1.609589    1.047907
 ---------------------------------------------------------------------
 SCF Done:  E(RB+HF-LYP) =  -158.456944010     A.U. after   10 cycles
                          Input orientation:                          
 ---------------------------------------------------------------------
 Center     Atomic     Atomic              Coordinates (Angstroms)
 Number     Number      Type              X           Y           Z
 ---------------------------------------------------------------------
    1          1             0       -1.372428    1.619189    1.035853
    2          6             0       -1.593997    1.138533    0.075175
    3          1             0       -1.388432    1.871380   -0.715347
    4          1             0       -2.667613    0.918752    0.051910
    5          6             0       -0.757050   -0.131778   -0.108209
    6          1             0       -1.041109   -0.637963   -1.041293
    7          1             0       -0.997782   -0.835850    0.701978
    8          6             0        0.756125    0.130924   -0.108368
    9          1             0        1.039850    0.637324   -1.041458
   10          1             0        0.995686    0.835109    0.701918
   11          6             0        1.595108   -1.137990    0.075351
   12          1             0        1.390087   -1.871090   -0.715167
   13          1             0        2.668331   -0.916940    0.052134
   14          1             0        1.373224   -1.619599    1.035539
 ---------------------------------------------------------------------
 SCF Done:  E(RB+HF-LYP) =  -158.457325498     A.U. after   12 cycles
                          Input orientation:                          
 ---------------------------------------------------------------------
 Center     Atomic     Atomic              Coordinates (Angstroms)
 Number     Number      Type              X           Y           Z
 ---------------------------------------------------------------------
    1          1             0       -1.369710    1.620827    1.033916
    2          6             0       -1.594196    1.138212    0.074915
    3          1             0       -1.391327    1.869634   -0.717628
    4          1             0       -2.667695    0.917593    0.055177
    5          6             0       -0.756736   -0.131555   -0.108653
    6          1             0       -1.041491   -0.639200   -1.040811
    7          1             0       -0.996655   -0.834186    0.702809
    8          6             0        0.756617    0.131433   -0.108574
    9          1             0        1.041257    0.639158   -1.040710
   10          1             0        0.996338    0.834105    0.702929
   11          6             0        1.594325   -1.138126    0.074984
   12          1             0        1.391569   -1.869637   -0.717534
   13          1             0        2.667783   -0.917369    0.055239
   14          1             0        1.369920   -1.620888    1.033954
 ---------------------------------------------------------------------
 SCF Done:  E(RB+HF-LYP) =  -158.457326791     A.U. after    7 cycles
    -- Stationary point found.
                          Input orientation:                          
 ---------------------------------------------------------------------
 Center     Atomic     Atomic              Coordinates (Angstroms)
 Number     Number      Type              X           Y           Z
 ---------------------------------------------------------------------
    1          1             0       -1.392804    1.657119    1.001844
    2          6             0       -1.597528    1.141635    0.055531
    3          1             0       -1.378512    1.845556   -0.757429
    4          1             0       -2.670398    0.919679    0.021405
    5          6             0       -0.756405   -0.133157   -0.067062
    6          1             0       -1.041572   -0.641057   -0.998959
    7          1             0       -0.993347   -0.836670    0.744510
    8          6             0        0.756403    0.133151   -0.067031
    9          1             0        1.041604    0.641063   -0.998911
   10          1             0        0.993302    0.836665    0.744556
   11          6             0        1.597531   -1.141632    0.055579
   12          1             0        1.378545   -1.845544   -0.757397
   13          1             0        2.670402   -0.919673    0.021500
   14          1             0        1.392780   -1.657133    1.001879
 ---------------------------------------------------------------------
 SCF Done:  E(RB+HF-LYP) =  -158.457343050     A.U. after   10 cycles
                          Input orientation:                          
 ---------------------------------------------------------------------
 Center     Atomic     Atomic              Coordinates (Angstroms)
 Number     Number      Type              X           Y           Z
 ---------------------------------------------------------------------
    1          1             0       -1.380100    1.668735    0.987769
    2          6             0       -1.596744    1.142365    0.050079
    3          1             0       -1.391141    1.837573   -0.773566
    4          1             0       -2.669528    0.918056    0.034452
    5          6             0       -0.755725   -0.132223   -0.072271
    6          1             0       -1.031283   -0.674406   -0.987901
    7          1             0       -0.999646   -0.805964    0.762325
    8          6             0        0.756078    0.132636   -0.072728
    9          1             0        1.032828    0.674336   -0.988420
   10          1             0        1.000364    0.806078    0.761753
   11          6             0        1.596465   -1.142702    0.050046
   12          1             0        1.390431   -1.837212   -0.773897
   13          1             0        2.669324   -0.918659    0.034818
   14          1             0        1.378678   -1.668611    0.987556
 ---------------------------------------------------------------------
 SCF Done:  E(RB+HF-LYP) =  -158.457715624     A.U. after   12 cycles
                          Input orientation:                          
 ---------------------------------------------------------------------
 Center     Atomic     Atomic              Coordinates (Angstroms)
 Number     Number      Type              X           Y           Z
 ---------------------------------------------------------------------
    1          1             0       -1.377640    1.669130    0.986607
    2          6             0       -1.596454    1.142049    0.049866
    3          1             0       -1.391408    1.836343   -0.774737
    4          1             0       -2.669374    0.918303    0.035941
    5          6             0       -0.755804   -0.132812   -0.072710
    6          1             0       -1.031154   -0.675911   -0.987845
    7          1             0       -1.000614   -0.804927    0.762733
    8          6             0        0.755897    0.132913   -0.072678
    9          1             0        1.031347    0.675984   -0.987808
   10          1             0        1.000815    0.804954    0.762775
   11          6             0        1.596369   -1.142090    0.049921
   12          1             0        1.391274   -1.836355   -0.774697
   13          1             0        2.669309   -0.918449    0.035993
   14          1             0        1.377438   -1.669130    0.986652
 ---------------------------------------------------------------------
 SCF Done:  E(RB+HF-LYP) =  -158.457717059     A.U. after    7 cycles
    -- Stationary point found.
                          Input orientation:                          
 ---------------------------------------------------------------------
 Center     Atomic     Atomic              Coordinates (Angstroms)
 Number     Number      Type              X           Y           Z
 ---------------------------------------------------------------------
    1          1             0       -1.399103    1.702944    0.953112
    2          6             0       -1.598349    1.144103    0.030446
    3          1             0       -1.375860    1.810016   -0.812930
    4          1             0       -2.670820    0.919598    0.001579
    5          6             0       -0.755647   -0.133963   -0.030914
    6          1             0       -1.031584   -0.676883   -0.945970
    7          1             0       -0.998320   -0.806833    0.804542
    8          6             0        0.755660    0.133978   -0.030891
    9          1             0        1.031648    0.676900   -0.945931
   10          1             0        0.998320    0.806834    0.804579
   11          6             0        1.598336   -1.144109    0.030491
   12          1             0        1.375866   -1.810012   -0.812899
   13          1             0        2.670811   -0.919620    0.001657
   14          1             0        1.399043   -1.702952    0.953144
 ---------------------------------------------------------------------
 SCF Done:  E(RB+HF-LYP) =  -158.457590879     A.U. after   10 cycles
                          Input orientation:                          
 ---------------------------------------------------------------------
 Center     Atomic     Atomic              Coordinates (Angstroms)
 Number     Number      Type              X           Y           Z
 ---------------------------------------------------------------------
    1          1             0       -1.385885    1.713702    0.938997
    2          6             0       -1.597446    1.144582    0.025384
    3          1             0       -1.387080    1.801463   -0.828120
    4          1             0       -2.670127    0.919650    0.013659
    5          6             0       -0.755668   -0.134089   -0.035952
    6          1             0       -1.022090   -0.709347   -0.934128
    7          1             0       -1.008147   -0.776491    0.820260
    8          6             0        0.754781    0.133168   -0.036062
    9          1             0        1.020855    0.708606   -0.934165
   10          1             0        1.005852    0.776216    0.820204
   11          6             0        1.598267   -1.144211    0.025316
   12          1             0        1.388524   -1.801215   -0.828206
   13          1             0        2.670747   -0.918269    0.013985
   14          1             0        1.387418   -1.713766    0.938842
 ---------------------------------------------------------------------
 SCF Done:  E(RB+HF-LYP) =  -158.457957998     A.U. after   12 cycles
                          Input orientation:                          
 ---------------------------------------------------------------------
 Center     Atomic     Atomic              Coordinates (Angstroms)
 Number     Number      Type              X           Y           Z
 ---------------------------------------------------------------------
    1          1             0       -1.383797    1.715066    0.937019
    2          6             0       -1.597745    1.144351    0.024946
    3          1             0       -1.389759    1.799550   -0.830261
    4          1             0       -2.670334    0.918824    0.017110
    5          6             0       -0.755348   -0.133754   -0.036435
    6          1             0       -1.021818   -0.710511   -0.933670
    7          1             0       -1.006724   -0.774829    0.821015
    8          6             0        0.755301    0.133669   -0.036338
    9          1             0        1.021725    0.710464   -0.933559
   10          1             0        1.006549    0.774816    0.821119
   11          6             0        1.597795   -1.144329    0.024999
   12          1             0        1.389800   -1.799496   -0.830212
   13          1             0        2.670381   -0.918738    0.017189
   14          1             0        1.383974   -1.715083    0.937091
 ---------------------------------------------------------------------
 SCF Done:  E(RB+HF-LYP) =  -158.457959124     A.U. after    7 cycles
    -- Stationary point found.
                          Input orientation:                          
 ---------------------------------------------------------------------
 Center     Atomic     Atomic              Coordinates (Angstroms)
 Number     Number      Type              X           Y           Z
 ---------------------------------------------------------------------
    1          1             0       -1.403302    1.746634    0.901845
    2          6             0       -1.598305    1.145001    0.005447
    3          1             0       -1.372198    1.770656   -0.867168
    4          1             0       -2.670603    0.919010   -0.017073
    5          6             0       -0.755234   -0.134251    0.005451
    6          1             0       -1.022600   -0.710710   -0.891709
    7          1             0       -1.004692   -0.775903    0.863041
    8          6             0        0.755226    0.134241    0.005485
    9          1             0        1.022622    0.710715   -0.891660
   10          1             0        1.004636    0.775892    0.863088
   11          6             0        1.598312   -1.145001    0.005495
   12          1             0        1.372241   -1.770640   -0.867137
   13          1             0        2.670608   -0.918994   -0.016970
   14          1             0        1.403288   -1.746648    0.901880
 ---------------------------------------------------------------------
 SCF Done:  E(RB+HF-LYP) =  -158.457677698     A.U. after   12 cycles
                          Input orientation:                          
 ---------------------------------------------------------------------
 Center     Atomic     Atomic              Coordinates (Angstroms)
 Number     Number      Type              X           Y           Z
 ---------------------------------------------------------------------
    1          1             0       -1.390367    1.757353    0.886618
    2          6             0       -1.598212    1.145115    0.000210
    3          1             0       -1.385051    1.760024   -0.882852
    4          1             0       -2.670722    0.918764   -0.002716
    5          6             0       -0.754945   -0.133810    0.000520
    6          1             0       -1.013025   -0.742151   -0.878386
    7          1             0       -1.012619   -0.745058    0.877684
    8          6             0        0.755018    0.134295   -0.000146
    9          1             0        1.013867    0.742438   -0.879018
   10          1             0        1.012907    0.744954    0.877131
   11          6             0        1.598080   -1.145215    0.000167
   12          1             0        1.385658   -1.760384   -0.883042
   13          1             0        2.670497   -0.918971   -0.002350
   14          1             0        1.388913   -1.757352    0.886192
 ---------------------------------------------------------------------
 SCF Done:  E(RB+HF-LYP) =  -158.458041049     A.U. after   12 cycles
                          Input orientation:                          
 ---------------------------------------------------------------------
 Center     Atomic     Atomic              Coordinates (Angstroms)
 Number     Number      Type              X           Y           Z
 ---------------------------------------------------------------------
    1          1             0       -1.387907    1.758730    0.884695
    2          6             0       -1.598321    1.145031   -0.000039
    3          1             0       -1.387654    1.758815   -0.884622
    4          1             0       -2.670752    0.918627   -0.000112
    5          6             0       -0.755063   -0.133954   -0.000027
    6          1             0       -1.013301   -0.743330   -0.878134
    7          1             0       -1.013396   -0.743428    0.877968
    8          6             0        0.755215    0.134126    0.000034
    9          1             0        1.013696    0.743477   -0.877996
   10          1             0        1.013689    0.743449    0.878106
   11          6             0        1.598178   -1.145065    0.000049
   12          1             0        1.387356   -1.758869   -0.884515
   13          1             0        2.670664   -0.918924   -0.000179
   14          1             0        1.387596   -1.758683    0.884784
 ---------------------------------------------------------------------
 SCF Done:  E(RB+HF-LYP) =  -158.458042228     A.U. after    7 cycles
    -- Stationary point found.
                          Input orientation:                          
 ---------------------------------------------------------------------
 Center     Atomic     Atomic              Coordinates (Angstroms)
 Number     Number      Type              X           Y           Z
 ---------------------------------------------------------------------
    1          1             0       -1.387907    1.758730    0.884695
    2          6             0       -1.598321    1.145031   -0.000039
    3          1             0       -1.387654    1.758815   -0.884622
    4          1             0       -2.670752    0.918627   -0.000112
    5          6             0       -0.755063   -0.133954   -0.000027
    6          1             0       -1.013301   -0.743330   -0.878134
    7          1             0       -1.013396   -0.743428    0.877968
    8          6             0        0.755215    0.134126    0.000034
    9          1             0        1.013696    0.743477   -0.877996
   10          1             0        1.013689    0.743449    0.878106
   11          6             0        1.598178   -1.145065    0.000049
   12          1             0        1.387356   -1.758869   -0.884515
   13          1             0        2.670664   -0.918924   -0.000179
   14          1             0        1.387596   -1.758683    0.884784
 ---------------------------------------------------------------------
