no title                                                                
Freq      UB3LYP                                                      6-31G(d)            
Number of atoms                            I                7
Charge                                     I                0
Multiplicity                               I                2
Number of electrons                        I               17
Number of alpha electrons                  I                9
Number of beta electrons                   I                8
Number of basis functions                  I               40
Number of independant functions            I               40
Number of point charges in /Mol/           I                0
Number of translation vectors              I                0
Info1-9                                    I   N=           9
          19          16           0           0           0         100
           6          18        -502
Num ILSW                                   I              100
ILSW                                       I   N=         100
           1           1           0           0           2           0
           0           0           0           0         402      200000
           5           0           0           0           0           0
           0      800000           0           0           1           0
           1           0           0           0     1000000           0
           0           0      100000           0          -1           0
           0           0           0           0           0           0
           0           0           0           1           0           0
           0           0           1      720000      810000           0
           0           0           0           0           0           0
           0           0           0           0           0           0
           0           0           0           0           0           0
           0           0           0           0           0           0
           0           0           0           0           0           0
           0           0           0           0           0           0
           0           0           0           0           0           0
           0           0           0           0
Number of contracted shells                I               18
Highest angular momentum                   I                2
Largest degree of contraction              I                6
Number of primitive shells                 I               42
Pure/Cartesian d shells                    I                1
Pure/Cartesian f shells                    I                0
Virial Ratio                               R      2.010394165877214E+00
SCF Energy                                 R     -7.915786826339025E+01
Total Energy                               R     -7.915786826339025E+01
S**2                                       R      7.539210665166083E-01
S**2 after annihilation                    R      7.500098491971375E-01
RMS Force                                  R      1.697042032891481E-07
RMS Density                                R      5.598909361923565E-09
Atomic numbers                             I   N=           7
           6           6           1           1           1           1
           1
Nuclear charges                            R   N=           7
  6.00000000E+00  6.00000000E+00  1.00000000E+00  1.00000000E+00  1.00000000E+00
  1.00000000E+00  1.00000000E+00
Current cartesian coordinates              R   N=          21
  1.31194393E+00 -4.26521490E-17 -1.45733874E-03 -1.50260153E+00  4.94814810E-17
 -4.37941290E-02  2.09633138E+00 -1.67740407E+00 -9.33366370E-01  2.09633277E+00
  1.67741361E+00 -9.33350756E-01  2.06936287E+00 -1.13291978E-05  1.94488379E+00
 -2.55904170E+00  1.75263540E+00  9.66724358E-02 -2.55903969E+00 -1.75263584E+00
  9.66697027E-02
Int Atom Types                             I   N=           7
           0           0           0           0           0           0
           0
Force Field                                I                0
MM charges                                 R   N=           7
  0.00000000E+00  0.00000000E+00  0.00000000E+00  0.00000000E+00  0.00000000E+00
  0.00000000E+00  0.00000000E+00
Integer atomic weights                     I   N=           7
          12          12           1           1           1           1
           1
Real atomic weights                        R   N=           7
  1.20000000E+01  1.20000000E+01  1.00782504E+00  1.00782504E+00  1.00782504E+00
  1.00782504E+00  1.00782504E+00
Atom residue info                          I   N=           7
           0           0           0           0           0           0
           0
Atom fragment info                         I   N=           7
           0           0           0           0           0           0
           0
Atom residue num                           I   N=           7
           0           0           0           0           0           0
           0
Nuclear spins                              I   N=           7
           0           0           1           1           1           1
           1
Nuclear ZEff                               R   N=           7
 -3.60000000E+00 -3.60000000E+00 -1.00000000E+00 -1.00000000E+00 -1.00000000E+00
 -1.00000000E+00 -1.00000000E+00
Nuclear QMom                               R   N=           7
  0.00000000E+00  0.00000000E+00  0.00000000E+00  0.00000000E+00  0.00000000E+00
  0.00000000E+00  0.00000000E+00
Nuclear GFac                               R   N=           7
  0.00000000E+00  0.00000000E+00  2.79284600E+00  2.79284600E+00  2.79284600E+00
  2.79284600E+00  2.79284600E+00
MicOpt                                     I   N=           7
          -1          -1          -1          -1          -1          -1
          -1
Constraint Structure                       R   N=          21
  1.31194393E+00 -4.26521490E-17 -1.45733874E-03 -1.50260153E+00  4.94814810E-17
 -4.37941290E-02  2.09633138E+00 -1.67740407E+00 -9.33366370E-01  2.09633277E+00
  1.67741361E+00 -9.33350756E-01  2.06936287E+00 -1.13291978E-05  1.94488379E+00
 -2.55904170E+00  1.75263540E+00  9.66724358E-02 -2.55903969E+00 -1.75263584E+00
  9.66697027E-02
ONIOM Charges                              I   N=          16
           0           0           0           0           0           0
           0           0           0           0           0           0
           0           0           0           0
ONIOM Multiplicities                       I   N=          16
           2           0           0           0           0           0
           0           0           0           0           0           0
           0           0           0           0
Atom Layers                                I   N=           7
           1           1           1           1           1           1
           1
Atom Modifiers                             I   N=           7
           0           0           0           0           0           0
           0
Int Atom Modified Types                    I   N=           7
           0           0           0           0           0           0
           0
Link Atoms                                 I   N=           7
           0           0           0           0           0           0
           0
Atom Modified MM Charges                   R   N=           7
  0.00000000E+00  0.00000000E+00  0.00000000E+00  0.00000000E+00  0.00000000E+00
  0.00000000E+00  0.00000000E+00
Link Distances                             R   N=          28
  0.00000000E+00  0.00000000E+00  0.00000000E+00  0.00000000E+00  0.00000000E+00
  0.00000000E+00  0.00000000E+00  0.00000000E+00  0.00000000E+00  0.00000000E+00
  0.00000000E+00  0.00000000E+00  0.00000000E+00  0.00000000E+00  0.00000000E+00
  0.00000000E+00  0.00000000E+00  0.00000000E+00  0.00000000E+00  0.00000000E+00
  0.00000000E+00  0.00000000E+00  0.00000000E+00  0.00000000E+00  0.00000000E+00
  0.00000000E+00  0.00000000E+00  0.00000000E+00
MxBond                                     I                4
NBond                                      I   N=           7
           4           3           1           1           1           1
           1
IBond                                      I   N=          28
           2           3           4           5           1           6
           7           0           1           0           0           0
           1           0           0           0           1           0
           0           0           2           0           0           0
           2           0           0           0
RBond                                      R   N=          28
  1.00000000E+00  1.00000000E+00  1.00000000E+00  1.00000000E+00  1.00000000E+00
  1.00000000E+00  1.00000000E+00  0.00000000E+00  1.00000000E+00  0.00000000E+00
  0.00000000E+00  0.00000000E+00  1.00000000E+00  0.00000000E+00  0.00000000E+00
  0.00000000E+00  1.00000000E+00  0.00000000E+00  0.00000000E+00  0.00000000E+00
  1.00000000E+00  0.00000000E+00  0.00000000E+00  0.00000000E+00  1.00000000E+00
  0.00000000E+00  0.00000000E+00  0.00000000E+00
Shell types                                I   N=          18
           0          -1          -1           2           0          -1
          -1           2           0           0           0           0
           0           0           0           0           0           0
Number of primitives per shell             I   N=          18
           6           3           1           1           6           3
           1           1           3           1           3           1
           3           1           3           1           3           1
Shell to atom map                          I   N=          18
           1           1           1           1           2           2
           2           2           3           3           4           4
           5           5           6           6           7           7
Primitive exponents                        R   N=          42
  3.04752488E+03  4.57369518E+02  1.03948685E+02  2.92101553E+01  9.28666296E+00
  3.16392696E+00  7.86827235E+00  1.88128854E+00  5.44249258E-01  1.68714478E-01
  8.00000000E-01  3.04752488E+03  4.57369518E+02  1.03948685E+02  2.92101553E+01
  9.28666296E+00  3.16392696E+00  7.86827235E+00  1.88128854E+00  5.44249258E-01
  1.68714478E-01  8.00000000E-01  1.87311370E+01  2.82539436E+00  6.40121692E-01
  1.61277759E-01  1.87311370E+01  2.82539436E+00  6.40121692E-01  1.61277759E-01
  1.87311370E+01  2.82539436E+00  6.40121692E-01  1.61277759E-01  1.87311370E+01
  2.82539436E+00  6.40121692E-01  1.61277759E-01  1.87311370E+01  2.82539436E+00
  6.40121692E-01  1.61277759E-01
Contraction coefficients                   R   N=          42
  1.83473713E-03  1.40373228E-02  6.88426223E-02  2.32184443E-01  4.67941348E-01
  3.62311985E-01 -1.19332420E-01 -1.60854152E-01  1.14345644E+00  1.00000000E+00
  1.00000000E+00  1.83473713E-03  1.40373228E-02  6.88426223E-02  2.32184443E-01
  4.67941348E-01  3.62311985E-01 -1.19332420E-01 -1.60854152E-01  1.14345644E+00
  1.00000000E+00  1.00000000E+00  3.34946043E-02  2.34726953E-01  8.13757326E-01
  1.00000000E+00  3.34946043E-02  2.34726953E-01  8.13757326E-01  1.00000000E+00
  3.34946043E-02  2.34726953E-01  8.13757326E-01  1.00000000E+00  3.34946043E-02
  2.34726953E-01  8.13757326E-01  1.00000000E+00  3.34946043E-02  2.34726953E-01
  8.13757326E-01  1.00000000E+00
P(S=P) Contraction coefficients            R   N=          42
  0.00000000E+00  0.00000000E+00  0.00000000E+00  0.00000000E+00  0.00000000E+00
  0.00000000E+00  6.89990666E-02  3.16423961E-01  7.44308291E-01  1.00000000E+00
  0.00000000E+00  0.00000000E+00  0.00000000E+00  0.00000000E+00  0.00000000E+00
  0.00000000E+00  0.00000000E+00  6.89990666E-02  3.16423961E-01  7.44308291E-01
  1.00000000E+00  0.00000000E+00  0.00000000E+00  0.00000000E+00  0.00000000E+00
  0.00000000E+00  0.00000000E+00  0.00000000E+00  0.00000000E+00  0.00000000E+00
  0.00000000E+00  0.00000000E+00  0.00000000E+00  0.00000000E+00  0.00000000E+00
  0.00000000E+00  0.00000000E+00  0.00000000E+00  0.00000000E+00  0.00000000E+00
  0.00000000E+00  0.00000000E+00
Coordinates of each shell                  R   N=          54
  1.31194393E+00 -4.26521490E-17 -1.45733874E-03  1.31194393E+00 -4.26521490E-17
 -1.45733874E-03  1.31194393E+00 -4.26521490E-17 -1.45733874E-03  1.31194393E+00
 -4.26521490E-17 -1.45733874E-03 -1.50260153E+00  4.94814810E-17 -4.37941290E-02
 -1.50260153E+00  4.94814810E-17 -4.37941290E-02 -1.50260153E+00  4.94814810E-17
 -4.37941290E-02 -1.50260153E+00  4.94814810E-17 -4.37941290E-02  2.09633138E+00
 -1.67740407E+00 -9.33366370E-01  2.09633138E+00 -1.67740407E+00 -9.33366370E-01
  2.09633277E+00  1.67741361E+00 -9.33350756E-01  2.09633277E+00  1.67741361E+00
 -9.33350756E-01  2.06936287E+00 -1.13291978E-05  1.94488379E+00  2.06936287E+00
 -1.13291978E-05  1.94488379E+00 -2.55904170E+00  1.75263540E+00  9.66724358E-02
 -2.55904170E+00  1.75263540E+00  9.66724358E-02 -2.55903969E+00 -1.75263584E+00
  9.66697027E-02 -2.55903969E+00 -1.75263584E+00  9.66697027E-02
Alpha Orbital Energies                     R   N=          40
 -1.01860227E+01 -1.01800653E+01 -7.50918115E-01 -6.04883205E-01 -4.46191167E-01
 -4.09327812E-01 -3.86716590E-01 -3.54392515E-01 -1.96081455E-01  1.15596345E-01
  1.39420604E-01  1.48489671E-01  1.77421926E-01  2.19942115E-01  2.61313832E-01
  5.13079840E-01  5.39231867E-01  5.51954472E-01  6.14654642E-01  6.15796910E-01
  7.42961755E-01  7.93042976E-01  8.67709934E-01  8.75548269E-01  9.44460715E-01
  9.44497987E-01  9.63174542E-01  1.27154210E+00  1.46797705E+00  1.65299143E+00
  1.76005373E+00  1.92466912E+00  1.98969039E+00  2.15856908E+00  2.17972639E+00
  2.32773439E+00  2.45900544E+00  2.59108933E+00  4.08346996E+00  4.31024924E+00
Beta Orbital Energies                      R   N=          40
 -1.01809834E+01 -1.01721123E+01 -7.34097486E-01 -5.80652381E-01 -4.39814283E-01
 -3.94581047E-01 -3.78580551E-01 -3.50081277E-01 -3.35951321E-02  1.19259217E-01
  1.50487103E-01  1.52820654E-01  1.84063128E-01  2.24314470E-01  2.69811184E-01
  5.17770549E-01  5.41225652E-01  5.96912842E-01  6.30780360E-01  6.49464889E-01
  7.49049816E-01  8.10212693E-01  8.74197970E-01  8.80126368E-01  9.47356203E-01
  9.53191988E-01  9.81351648E-01  1.28045713E+00  1.49490104E+00  1.71380602E+00
  1.76567107E+00  1.95496691E+00  2.02039665E+00  2.18460764E+00  2.20539707E+00
  2.34403239E+00  2.46558708E+00  2.60433162E+00  4.10850366E+00  4.32121611E+00
Alpha MO coefficients                      R   N=        1600
  2.28318124E-02  9.52725875E-04  3.04372990E-04 -7.12110604E-10  3.88240492E-05
  2.62504701E-03 -1.75531320E-03  3.61456203E-09 -1.65765336E-04 -6.04228850E-04
 -3.14907951E-04 -2.84337963E-04  4.30815886E-11 -1.45081140E-05 -1.24958961E-10
  9.92249701E-01  5.04818172E-02  5.79016235E-05 -8.07461157E-10  8.46666872E-05
 -1.19839755E-02 -7.30042540E-04  9.95485281E-10 -2.09931895E-04 -1.00990258E-02
 -1.00354696E-02 -9.68724854E-03  5.13678510E-11  1.47329181E-05 -2.30657077E-10
 -1.11355403E-04  1.89074295E-04 -1.11355383E-04  1.89070147E-04 -1.56801985E-04
  4.98376145E-04 -2.83788593E-04  2.15608158E-03 -2.83788840E-04  2.15608355E-03
  9.92659249E-01  4.97449619E-02 -2.03291915E-05 -1.55843440E-09  2.16346914E-05
 -1.68972038E-02  8.03326062E-04  5.76775420E-09 -4.76289860E-05 -9.13222573E-03
 -9.08323582E-03 -9.10709690E-03 -1.35760477E-10 -7.06202120E-06  2.32728842E-10
 -2.30515142E-02 -1.39338352E-03 -2.19153328E-04 -9.45775312E-11 -2.59214153E-06
  4.57710064E-03  2.12076685E-03 -1.00913554E-09  5.86012777E-05 -1.97765596E-04
  1.48554532E-04  6.57672868E-05 -1.07073119E-10 -5.85815280E-06  1.43391377E-11
 -5.58990502E-05  2.69680222E-03 -5.58991842E-05  2.69679610E-03 -3.45078042E-05
  2.69696930E-03 -1.34331463E-04  1.88117079E-05 -1.34331753E-04  1.88112811E-05
 -1.60322772E-01  3.07999260E-01 -5.51343206E-02 -1.68357048E-07  5.26234684E-04
  2.54523063E-01 -5.49217560E-04 -7.01638785E-08  2.12352862E-03  3.51503656E-03
 -1.24934474E-03 -2.06547336E-03 -5.39215109E-09  9.52593420E-05  2.25005559E-10
 -1.42803879E-01  2.78816341E-01  7.47332097E-02 -1.03934328E-07  6.19532527E-03
  2.37889857E-01  1.10341676E-02 -2.10827041E-08  1.95856436E-03  6.42770178E-03
 -1.93992362E-03 -7.16710446E-03 -2.38963227E-09 -3.29731365E-05  5.86428598E-09
  9.32418878E-02  1.99838377E-02  9.32417018E-02  1.99838343E-02  9.44217720E-02
  1.87205765E-02  7.68597706E-02  1.43595977E-02  7.68598823E-02  1.43596111E-02
  1.13397787E-01 -2.23494635E-01 -1.51005431E-01  2.33771064E-07 -2.47848278E-03
 -2.39745797E-01 -5.20122978E-02  5.14743660E-08 -1.45357419E-03  1.52799569E-02
 -6.22738761E-03 -5.94214497E-03  1.84133833E-08 -9.32942280E-05  1.53760823E-09
 -1.45053394E-01  2.92169558E-01 -1.35777108E-01 -1.16041217E-07  9.85913425E-03
  3.07084935E-01 -4.41573986E-02 -1.30029141E-08  4.05499419E-03 -1.31986359E-02
  9.25318465E-03 -5.26875961E-03  5.86915809E-09 -1.25706710E-03  1.36319245E-08
 -1.11654661E-01 -4.26153402E-02 -1.11654441E-01 -4.26152500E-02 -1.14060756E-01
 -4.52647875E-02  1.42492217E-01  5.48064285E-02  1.42492314E-01  5.48064594E-02
 -9.46663147E-08  1.98908071E-07 -1.24558283E-07  2.96928412E-01  1.59735834E-07
  2.66426878E-07 -1.35648883E-08  1.32551185E-01  4.31335942E-08  1.46624340E-08
  1.23656036E-07 -1.48858000E-07  2.18076369E-03 -5.29283959E-09 -1.19137383E-02
 -3.58489650E-08  6.85433511E-08  1.83416965E-07  3.51648419E-01  2.47737905E-07
  1.63345781E-07  6.89756563E-08  1.39461087E-01  1.05723717E-07  2.46946123E-08
 -3.23347536E-08  1.04368288E-09 -9.48945727E-03 -7.76306343E-09  2.36075769E-03
 -1.41369398E-01 -1.04426428E-01  1.41370118E-01  1.04426974E-01 -7.78316343E-07
 -5.61323716E-07  1.66852306E-01  1.23134006E-01 -1.66852456E-01 -1.23134071E-01
  3.09615064E-03 -7.42236662E-03  4.32874886E-02 -3.28061873E-07  4.24737603E-01
 -7.14329032E-03  1.89567962E-02 -1.93817750E-07  1.89419078E-01 -1.72429300E-03
 -1.48654786E-02  1.80419236E-02 -2.32118080E-08  1.13083830E-02 -3.03975821E-07
  4.41145633E-03 -1.10101887E-02 -5.29604415E-02  5.16568225E-08  1.72949849E-01
 -8.50404906E-03 -2.06488899E-02  3.82921569E-08  9.58437816E-02 -1.23323105E-03
  1.64498644E-03  1.34377664E-03 -1.69790129E-08  1.07334585E-02 -1.75383621E-08
 -1.15095902E-01 -9.59255095E-02 -1.15094038E-01 -9.59239244E-02  2.66292991E-01
  2.24208559E-01  1.75174084E-02  1.25188275E-02  1.75172073E-02  1.25187006E-02
 -1.43609935E-02  3.49174796E-02 -3.97436414E-01  2.37746636E-07  5.31035254E-02
  3.71814539E-02 -1.79365990E-01  9.25911100E-08  2.53224006E-02  1.16392728E-02
 -1.34989689E-02 -7.75958330E-03  2.70287765E-08  2.06337657E-03 -4.50005060E-08
 -1.69796081E-02  4.31298726E-02  4.18614737E-01 -2.99554610E-07  1.07842755E-02
  3.12970626E-02  1.64921571E-01 -1.75266893E-07  7.91003115E-03  7.19679699E-03
 -1.76620719E-02  2.38872737E-05  2.90317071E-08  3.41822109E-03 -2.22213742E-08
 -1.01021489E-01 -9.15208344E-02 -1.01021032E-01 -9.15204379E-02 -4.83045666E-02
 -4.56807084E-02 -1.18117340E-01 -1.06328723E-01 -1.18116840E-01 -1.06328332E-01
 -4.22605864E-08  7.17684007E-08  4.87899154E-07  3.37059203E-01  3.93687571E-07
  1.72796505E-07  2.73409800E-07  1.61975317E-01  1.58925365E-07  4.59132554E-09
  1.82082682E-07 -1.78132362E-07  2.22803775E-02  1.14841055E-08 -1.60155867E-02
  4.78201607E-08 -9.61279968E-08 -2.74313851E-07 -2.95881870E-01 -1.34881873E-07
 -1.88825113E-07 -5.16914844E-08 -1.28674136E-01 -4.54849554E-08 -2.39814862E-08
  5.20756603E-08 -1.95487258E-08  2.73624494E-02  2.62854191E-08 -3.82654962E-03
 -1.97539593E-01 -1.86452310E-01  1.97540709E-01  1.86453409E-01 -8.58667659E-07
 -7.71002003E-07 -1.78186921E-01 -1.66603733E-01  1.78187096E-01  1.66603937E-01
 -3.54403481E-03  8.71284676E-03 -1.10587181E-02 -3.67897908E-09 -1.13073418E-01
  7.44668171E-03 -7.94891497E-04 -2.54903263E-08 -6.46308567E-02  9.70078388E-05
  9.27158781E-03 -1.00966505E-02  2.40315519E-08 -2.94318212E-02  1.70119894E-07
  1.09219725E-02 -2.24871840E-02  1.97117631E-02 -4.26469977E-07  5.81636409E-01
 -6.07257433E-02  2.65074885E-02 -3.90650234E-07  5.22754924E-01  1.60823114E-03
  2.36214184E-03 -8.35124773E-04 -1.91814214E-09 -5.81332061E-03  5.88182461E-09
  6.93487833E-02  9.64191277E-02  6.93476799E-02  9.64175895E-02 -1.44988524E-01
 -2.13116014E-01  1.31502144E-02  2.19436887E-02  1.31501890E-02  2.19436310E-02
 -1.12048223E-01  1.23209464E-01  1.74359438E-01  1.15881715E-06 -2.14266400E-02
  1.98587771E+00  5.06110146E-01  3.21961773E-06 -1.21634574E-01  1.10394657E-03
 -1.69926534E-02 -9.90248001E-03 -7.04176094E-08 -1.34798846E-03  4.26310320E-08
 -7.01482861E-02  1.45251479E-01 -1.19907466E-01  5.78828629E-07  2.13642296E-02
  9.64083698E-01 -5.36789647E-01  6.38452068E-07  8.90734904E-02  6.74746233E-03
 -9.29827773E-03 -1.32004445E-03  9.75049186E-08 -1.05584519E-03  1.13797383E-08
 -2.47961264E-02 -9.93037151E-01 -2.47969714E-02 -9.93044047E-01 -1.38275922E-02
 -7.93205729E-01 -2.36089730E-02 -7.84512560E-01 -2.36084204E-02 -7.84509233E-01
  1.13783601E-01 -1.29170708E-01  4.32427142E-03  3.78530136E-06 -9.95046127E-02
 -1.80214632E+00  1.60457164E-01  1.17935135E-05 -3.74234246E-01  1.65001448E-02
 -1.44463013E-03  1.17419814E-02 -2.28337082E-07 -2.87815219E-03  9.75851928E-08
 -1.23621414E-01  1.47686274E-01 -7.96886728E-02  3.07686092E-06  4.44382881E-02
  1.98770848E+00 -4.60975195E-02  6.62656926E-06  1.82859443E-01 -2.00614723E-02
 -1.58974080E-02  5.28638044E-03  2.74137808E-07 -4.13895272E-03  2.86975203E-08
  4.35839616E-03  4.41421734E-01  4.35629262E-03  4.41396677E-01  3.44938847E-02
  1.05662842E+00 -7.41302877E-02 -1.02791335E+00 -7.41286241E-02 -1.02789357E+00
  1.03439214E-06 -1.23707666E-06  5.22966726E-07 -3.17418262E-01 -1.33893693E-06
 -1.46766229E-05  4.27649565E-06 -8.73990545E-01 -5.29712523E-06  2.04927551E-07
  7.40967753E-08 -5.19739609E-08  1.99899395E-02 -1.88584286E-08 -1.19992431E-02
 -1.81064834E-06  2.59392116E-06 -1.25300239E-06 -2.54254792E-01  3.61550818E-07
  2.88336452E-05 -1.57179985E-06 -6.24042683E-01  1.89926920E-06 -1.94018863E-07
 -1.25908213E-07 -1.72269555E-08 -2.30939848E-02 -6.07103479E-08 -6.91469758E-03
 -9.45269361E-02 -1.13112529E+00  9.45275390E-02  1.13113387E+00  1.67114439E-08
  3.84052550E-06  6.63988940E-02  8.68979310E-01 -6.64005664E-02 -8.69011017E-01
 -2.42589495E-02  2.53264469E-02 -3.09808179E-02  2.90807513E-07 -4.18064927E-01
  4.20686372E-01 -1.94809064E-01  6.93556056E-08 -1.32991001E+00 -5.57892690E-03
 -1.01950550E-02  1.02483654E-02  3.83017764E-09  2.66731878E-03 -1.99723723E-07
  4.48468366E-02 -8.07078026E-02  2.88368643E-02 -2.55344540E-08  2.83878029E-02
 -6.94108473E-01 -9.24696970E-02  3.26629632E-07  3.06347779E-01  3.81696359E-03
 -6.31064815E-03  4.33807063E-03  1.39791395E-08 -2.08249770E-02 -1.68158781E-07
 -4.42401005E-02 -9.12431075E-01 -4.42392503E-02 -9.12416155E-01  9.21889303E-02
  1.60787292E+00  1.62444198E-02  3.18470017E-01  1.62443840E-02  3.18470951E-01
  3.30613607E-08 -1.50776142E-07  5.56568793E-07 -2.56177328E-01  2.00170072E-08
  1.08618853E-06  2.42707933E-06 -1.26213417E+00 -6.01962062E-07  3.53410078E-08
  1.02880230E-07 -1.32412121E-07 -1.85570607E-02 -1.64537278E-08 -9.82651938E-03
 -1.96326925E-07  6.48657696E-07  1.13873560E-07  3.63346303E-01  3.04313142E-07
  1.34708713E-06  1.57585673E-06  1.48379858E+00  9.59120937E-07 -5.10912566E-09
  1.25525527E-07 -4.63255247E-08 -7.47950091E-03  1.01671946E-08 -9.63206681E-03
 -2.78209489E-02 -1.10172767E+00  2.78210521E-02  1.10173041E+00 -1.26948631E-07
 -7.31564050E-06 -1.31701469E-02 -1.48125622E+00  1.31702231E-02  1.48125658E+00
  6.16199851E-02 -3.58699542E-02  2.98826888E-01  6.02908502E-07 -3.98590429E-02
 -1.42911086E+00  1.93357913E+00  1.47258179E-06 -4.09944056E-02  3.66322095E-02
 -1.14373482E-02 -1.36840961E-02 -1.79387234E-08  3.78242520E-03  1.02496733E-08
 -6.04146883E-02  7.56457701E-02  3.62429774E-01 -4.13372007E-07 -1.28773494E-02
  1.26660250E+00  1.96027971E+00 -1.31649635E-06  1.93935537E-03 -2.36777891E-02
  2.03891222E-02  1.40434513E-03  1.42894269E-08 -2.82020688E-03  2.32049561E-08
 -6.67416738E-02 -3.94370698E-01 -6.67417264E-02 -3.94373579E-01 -5.15934009E-02
 -2.04063554E-01  4.29424677E-02  6.22889005E-01  4.29426621E-02  6.22885391E-01
 -4.99814310E-03 -8.40129092E-02  6.71116271E-01 -1.10564525E-06 -4.48382954E-02
 -5.00386208E-01 -8.38012504E-01  2.17100190E-06  6.20130609E-02 -9.37721929E-02
  3.71101472E-02  2.62113290E-02 -1.69575232E-07  4.03500760E-04  2.10533533E-07
 -2.29601186E-02 -1.06510583E-01 -5.42905706E-01 -1.18145711E-06 -5.80536391E-02
 -2.01656823E-01  1.11450147E+00  1.94569165E-06  2.67720363E-02 -1.16049597E-01
  4.80139339E-02  1.31106033E-02  1.98000785E-07 -4.63538539E-03  3.00429309E-08
  1.09725213E-01  2.23833283E-02  1.09722939E-01  2.23832580E-02  8.78372866E-02
  1.90232538E-02  9.16114616E-02  1.61768254E-01  9.16135694E-02  1.61767566E-01
  3.82945039E-08 -6.52014111E-08 -1.89941725E-06 -5.69845245E-01 -1.95643029E-06
  1.18170654E-06  2.30299504E-06  9.81701890E-01  4.07101570E-06  2.22711269E-07
 -8.90935061E-07  5.84397348E-07 -6.88970747E-02 -7.23552191E-08  7.53575100E-02
  5.98577890E-08 -4.27009850E-07  1.91860955E-06 -3.10799796E-01 -2.26930660E-06
  1.45555661E-06 -3.93705341E-06  5.12531739E-01  1.68703992E-06  2.07825335E-07
 -3.14691856E-07  8.63586713E-10  7.55395959E-02  8.83105996E-08 -4.62067819E-04
  3.87880685E-01  5.12634842E-02 -3.87882250E-01 -5.12624117E-02  2.16839286E-07
  3.25671237E-08 -3.08833007E-01 -2.01164792E-02  3.08831674E-01  2.01158802E-02
  1.11656488E-03 -2.66450514E-02  8.22165901E-02 -1.46894216E-06  2.47375889E-01
  6.00226614E-03 -8.26584361E-02  2.30517663E-06 -4.72004460E-01 -3.25039622E-03
 -4.22739925E-02  4.23190516E-02 -2.40743058E-07 -8.71324447E-04 -5.42766466E-07
  1.46468061E-03 -6.76159024E-02  1.68109518E-02 -1.99385460E-06  9.72405955E-01
  3.69315688E-03  4.81062435E-02  3.15561557E-06 -9.13004396E-01 -2.11435231E-02
 -1.54906482E-03  1.63843267E-03  2.62453095E-07  4.15230804E-03 -1.17650598E-07
 -1.17265326E-01 -7.87236524E-02 -1.17265635E-01 -7.87223020E-02  2.49274746E-01
  1.54741187E-01  1.79222348E-02  3.04329435E-02  1.79243408E-02  3.04334440E-02
 -2.80476538E-02  3.08482940E-01 -6.51362455E-01  1.45453650E-06 -2.11353403E-01
 -8.76101330E-01  1.09279587E+00 -2.71638013E-06  4.24795181E-01 -5.79361535E-02
  5.01409891E-02  1.19406348E-02 -1.47724582E-07  2.08553158E-03  2.62598301E-07
  5.96704334E-02  1.95384909E-01 -5.88452352E-01 -1.11501150E-06  1.16451330E-01
 -1.54113847E-01  1.41902989E+00  3.86665663E-06 -2.89494185E-01  1.26675678E-01
  9.96242517E-02 -9.20437033E-02  1.11176051E-07 -3.25788858E-03  1.76359500E-07
 -8.18226175E-03 -4.94115375E-02 -8.18369706E-03 -4.94102439E-02 -4.38445258E-02
 -2.13839620E-01  4.27030433E-01  2.36311010E-01  4.27031084E-01  2.36313912E-01
  6.72166168E-03 -5.57529633E-02  1.28828539E-01  4.08835511E-07 -6.98937728E-01
  2.00697720E-01 -2.36020347E-01 -1.34209066E-07  1.71013152E+00  1.84116004E-02
  7.70120613E-02 -9.45553566E-02  3.00757096E-07 -5.03666529E-02  1.42723655E-06
 -1.45277752E-02  1.35963439E-02  1.18286328E-01  1.37931527E-06  4.03845451E-01
 -4.85654156E-02 -3.13317598E-01 -3.90699688E-06 -9.19314227E-01 -1.80317086E-02
 -9.19499658E-03  1.36714695E-02 -3.17579228E-07  4.32654752E-02  2.28472160E-07
  2.20473534E-01  1.81763951E-01  2.20471344E-01  1.81760422E-01 -4.26273994E-01
 -3.07890764E-01 -1.19533144E-01 -1.65683212E-02 -1.19535015E-01 -1.65709829E-02
  1.74956911E-07 -5.23409525E-07  1.59327517E-06  7.34727389E-01 -6.55661556E-07
  6.03368438E-06 -7.27702864E-06 -2.27587877E+00  1.77369124E-06  5.07112099E-07
  9.32943314E-07 -1.14814768E-06 -7.37849255E-02 -2.07368396E-07 -6.99264776E-02
 -5.19111384E-08  4.08600058E-06  2.66203389E-06 -7.28792595E-01 -5.61618285E-07
 -1.07501398E-05 -8.60233948E-06  2.51933244E+00  9.34667231E-07  7.28997776E-08
  5.22791358E-07 -8.56287853E-09  9.00226284E-02  2.36370302E-07 -4.73679815E-02
  9.11329580E-03 -9.57461387E-01 -9.11112467E-03  9.57469193E-01  1.33881396E-07
 -5.56572866E-06 -2.23335411E-01 -9.92667381E-01  2.23334737E-01  9.92666508E-01
 -6.29967387E-02  6.46258817E-02 -2.77755904E-01  2.00582759E-06  1.42415038E-01
 -4.53671229E-01  1.38836904E+00 -8.00813438E-06 -2.03753482E-01 -7.87817456E-02
  1.57953030E-02 -1.85212745E-03 -1.10951643E-08 -3.32842370E-02  5.34908167E-08
 -2.93098397E-02 -9.28898509E-01 -6.12717722E-01 -2.59022170E-06  1.98374120E-02
  2.34282856E+00  1.16158130E+00  7.41060105E-06  3.45586561E-02 -2.06768321E-02
 -1.84220392E-01  3.68778692E-02  7.05393415E-08  2.84669935E-02 -3.93314018E-07
 -2.46430906E-01 -3.76945624E-01 -2.46431567E-01 -3.76935959E-01 -4.52585412E-01
  2.99595537E-02 -4.46458372E-01  1.82686475E-01 -4.46458216E-01  1.82692911E-01
  7.23425897E-03  5.91041830E-02  2.52027424E-02 -6.42258150E-06  8.12524217E-01
 -1.67404185E-01 -1.14499906E-01  7.97091378E-06 -1.26167719E+00  9.91350367E-03
  1.27250509E-01 -1.21723687E-01  1.40931077E-06 -1.34458453E-01  1.12327524E-06
  1.53060410E-02 -4.35413208E-02  1.29984149E-01 -7.51990894E-06  2.00177879E-02
  3.77498515E-04 -9.05760262E-02  1.49343963E-05  3.27647510E-02 -1.36770781E-02
  4.70526703E-02 -3.38711563E-02 -1.55497941E-06  9.17196834E-02 -3.43967637E-08
  4.22669388E-01 -7.35041634E-01  4.22673077E-01 -7.35049084E-01 -7.55398044E-01
  1.66789946E+00  2.03404895E-01 -1.46434907E-01  2.03397669E-01 -1.46410405E-01
 -2.98901063E-09 -2.47638263E-06 -9.40919041E-07 -5.72070767E-01 -9.16727550E-06
  4.63669229E-06  2.98423082E-06  6.35862554E-01  1.44337709E-05 -3.50087671E-07
 -7.75044647E-08  6.79848764E-08  1.26837565E-01  1.44341899E-06 -9.66667238E-02
 -8.46367249E-08 -2.50728333E-06 -4.34535656E-07 -7.73617122E-01 -8.34693256E-07