 toon@molmod22 has created process number                            0      8361

  **** **** ******  **  PROGRAM STARTED AT                   20081119 120405.736
 ***** ** ***  *** **   PROGRAM STARTED ON                              molmod22
 **    ****   ******    PROGRAM STARTED BY                                  toon
 ***** **    ** ** **   PROGRAM PROCESS ID                                  8361
  **** **  *******  **  PROGRAM STARTED IN /home/toon/unief/doctoraat/code/work/
                                           tamkin/apps/001_cyclopentane/freq

 CP2K| version string:                  CP2K version 2.0.0 (Development Version)
 CP2K| is freely available from                          http://cp2k.berlios.de/
 CP2K| Program compiled at                         Sat Aug  9 10:41:31 CEST 2008
 CP2K| Program compiled on                                              molmod22
 CP2K| Program compiled for                                     Linux-x86-64-g95
 CP2K| Last CVS entry                                                           
 CP2K| Input file name                                                  freq.inp

 GLOBAL| Force Environment number                                              1
 GLOBAL| Basis set file name                                           BASIS_SET
 GLOBAL| Potential file name                                           POTENTIAL
 GLOBAL| MM Potential file name                                     MM_POTENTIAL
 GLOBAL| Coordinate file name                                         ../opt.xyz
 GLOBAL| Method name                                                        CP2K
 GLOBAL| Project name                                                       freq
 GLOBAL| Preferred FFT library                                             FFTW3
 GLOBAL| Run type                                           VIBRATIONAL_ANALYSIS
 GLOBAL| All-to-all communication in single precision                          F
 GLOBAL| FFTs using library dependent lengths                                  F
 GLOBAL| Global print level                                                    3
 GLOBAL| Total number of message passing processes                             1
 GLOBAL| Number of threads for this process                                    1
 GLOBAL| This output is from process                                           0

 WARNING : FFT library FFTW3 is not available  Trying FFTSG as a default

 *** Fundamental physical constants (SI units) ***

 *** Literature: B. J. Mohr and B. N. Taylor,
 ***             CODATA recommended values of the fundamental physical
 ***             constants: 2006, Web Version 5.1, http://physics.nist.gov/constants.

 Speed of light in vacuum [m/s]                             2.99792458000000E+08
 Magnetic constant or permeability of vacuum [N/A**2]       1.25663706143592E-06
 Electric constant or permittivity of vacuum [F/m]          8.85418781762039E-12
 Planck constant (h) [J*s]                                  6.62606896000000E-34
 Planck constant (h-bar) [J*s]                              1.05457162825177E-34
 Elementary charge [C]                                      1.60217648700000E-19
 Electron mass [kg]                                         9.10938215000000E-31
 Electron g factor [ ]                                     -2.00231930436220E+00
 Fine-structure constant                                    7.29735253760000E-03
 Rydberg constant [1/m]                                     1.09737315685270E+07
 Avogrado constant [1/mol]                                  6.02214179000000E+23
 Boltzmann constant [J/K]                                   1.38065040000000E-23
 Atomic mass unit [kg]                                      1.66053878200000E-27
 Bohr radius [m]                                            5.29177208590000E-11

 *** Conversion factors ***

 [u] -> [a.u.]                                              1.82288848426455E+03
 [Angstrom] -> [Bohr] = [a.u.]                              1.88972613288564E+00
 [a.u.] = [Bohr] -> [Angstrom]                              5.29177208590000E-01
 [a.u.] -> [s]                                              2.41888432650478E-17
 [a.u.] -> [fs]                                             2.41888432650478E-02
 [a.u.] -> [J]                                              4.35974393937059E-18
 [a.u.] -> [K]                                              3.15774647902944E+05
 [a.u.] -> [kJ/mol]                                         2.62549961709828E+03
 [a.u.] -> [kcal/mol]                                       6.27509468713739E+02
 [a.u.] -> [eV]                                             2.72113838565563E+01
 [a.u.] -> [Hz]                                             6.57968392072181E+15
 [a.u.] -> [MHz]                                            6.57968392072181E+09
 [a.u.] -> [1/cm] (wave numbers)                            2.19474631370540E+05
 [a.u./Bohr**2] -> [1/cm]                                   5.14048714338585E+03
 


                      ************* ******** ***********   
                     ************* **********************  
                     ****     **** ****      ***********   
                     ******** ****  *******     ****       
                     *******  ****   *******   ****        
                     ****     ****       ****  ****        
                     ****     **** **********  ****        
                      ****     **** ********    ****       
                     FRONTIERS IN SIMULATION TECHNOLOGY    
                                                           
                     C.J. Mundy, S. Balasubramanian,       
                     Ken Bagchi, J. Hutter, Ari Seitsonen  
                     IFW Kuo, T. Laino, J. VandeVondele    
                                 Version 0.31415           

                                                           


 CELL| Volume [ANGSTROM**3]:                                           27000.000
 CELL| Vector a [ANGSTROM]:      30.000     0.000     0.000    |a| =      30.000
 CELL| Vector b [ANGSTROM]:       0.000    30.000     0.000    |b| =      30.000
 CELL| Vector c [ANGSTROM]:       0.000     0.000    30.000    |c| =      30.000
 CELL| Angle (b,c) [degree]:                                              90.000
 CELL| Angle (a,c) [degree]:                                              90.000
 CELL| Angle (a,b) [degree]:                                              90.000
 CELL| Grid size for subcell generation                                    2.000

 CELL_REF| Volume [ANGSTROM**3]:                                       27000.000
 CELL_REF| Vector a [ANGSTROM    30.000     0.000     0.000    |a| =      30.000
 CELL_REF| Vector b [ANGSTROM     0.000    30.000     0.000    |b| =      30.000
 CELL_REF| Vector c [ANGSTROM     0.000     0.000    30.000    |c| =      30.000
 CELL_REF| Angle (b,c) [degree]:                                          90.000
 CELL_REF| Angle (a,c) [degree]:                                          90.000
 CELL_REF| Angle (a,b) [degree]:                                          90.000
 CELL_REF| Grid size for subcell generation                                2.000
 EWALD|                                                                 not used

UTIL_INFO| Multiple Torsion declarations: C1,C2,C2 and C2
UTIL_INFO| Number of defined torsions:      2 .


UTIL_INFO| Multiple Torsion declarations: C1,C2,C2 and H
UTIL_INFO| Number of defined torsions:      2 .


UTIL_INFO| Multiple Torsion declarations: C2,C2,C2 and H
UTIL_INFO| Number of defined torsions:      2 .


UTIL_INFO| Multiple Torsion declarations: C2,C2,C1 and H
UTIL_INFO| Number of defined torsions:      2 .


UTIL_INFO| Multiple Torsion declarations: H,C2,C2 and H
UTIL_INFO| Number of defined torsions:      2 .


UTIL_INFO| Multiple Torsion declarations: H,C1,C2 and H
UTIL_INFO| Number of defined torsions:      2 .

 CHARGE_INFO| Total Charge of the Classical System:                    -0.000400
 Total number of particles with a shell ::  0
     TESTING C1C1 with HH
     TESTING C1C1 with C1H
     TESTING C1C1 with C2H
     TESTING C1C1 with C1C1
     FOUND C1 C1
     TESTING C1C1 with C1C2
     TESTING C1C1 with C2C2
     TESTING C1C2 with HH
     TESTING C1C2 with C1H
     TESTING C1C2 with C2H
     TESTING C1C2 with C1C1
     TESTING C1C2 with C1C2
     FOUND C1 C2
     TESTING C1C2 with C2C2
     TESTING C1C2 with HH
     TESTING C1C2 with C1H
     TESTING C1C2 with C2H
     TESTING C1C2 with C1C1
     TESTING C1C2 with C1C2
     FOUND C1 C2
     TESTING C1C2 with C2C2
     TESTING C1H with HH
     TESTING C1H with C1H
     FOUND C1 H
     TESTING C1H with C2H
     TESTING C1H with C1C1
     TESTING C1H with C1C2
     TESTING C1H with C2C2
     TESTING C1H with HH
     TESTING C1H with C1H
     FOUND C1 H
     TESTING C1H with C2H
     TESTING C1H with C1C1
     TESTING C1H with C1C2
     TESTING C1H with C2C2
     TESTING C1H with HH
     TESTING C1H with C1H
     FOUND C1 H
     TESTING C1H with C2H
     TESTING C1H with C1C1
     TESTING C1H with C1C2
     TESTING C1H with C2C2
     TESTING C2C2 with HH
     TESTING C2C2 with C1H
     TESTING C2C2 with C2H
     TESTING C2C2 with C1C1
     TESTING C2C2 with C1C2
     TESTING C2C2 with C2C2
     FOUND C2 C2
     TESTING C2C2 with HH
     TESTING C2C2 with C1H
     TESTING C2C2 with C2H
     TESTING C2C2 with C1C1
     TESTING C2C2 with C1C2
     TESTING C2C2 with C2C2
     FOUND C2 C2
     TESTING C2H with HH
     TESTING C2H with C1H
     TESTING C2H with C2H
     FOUND C2 H
     TESTING C2H with C1C1
     TESTING C2H with C1C2
     TESTING C2H with C2C2
     TESTING C2H with HH
     TESTING C2H with C1H
     TESTING C2H with C2H
     FOUND C2 H
     TESTING C2H with C1C1
     TESTING C2H with C1C2
     TESTING C2H with C2C2
     TESTING C2H with HH
     TESTING C2H with C1H
     TESTING C2H with C2H
     FOUND C2 H
     TESTING C2H with C1C1
     TESTING C2H with C1C2
     TESTING C2H with C2C2
     TESTING C2C2 with HH
     TESTING C2C2 with C1H
     TESTING C2C2 with C2H
     TESTING C2C2 with C1C1
     TESTING C2C2 with C1C2
     TESTING C2C2 with C2C2
     FOUND C2 C2
     TESTING C2H with HH
     TESTING C2H with C1H
     TESTING C2H with C2H
     FOUND C2 H
     TESTING C2H with C1C1
     TESTING C2H with C1C2
     TESTING C2H with C2C2
     TESTING C2H with HH
     TESTING C2H with C1H
     TESTING C2H with C2H
     FOUND C2 H
     TESTING C2H with C1C1
     TESTING C2H with C1C2
     TESTING C2H with C2C2
     TESTING C2H with HH
     TESTING C2H with C1H
     TESTING C2H with C2H
     FOUND C2 H
     TESTING C2H with C1C1
     TESTING C2H with C1C2
     TESTING C2H with C2C2
     TESTING HH with HH
     FOUND H H
     TESTING HH with C1H
     TESTING HH with C2H
     TESTING HH with C1C1
     TESTING HH with C1C2
     TESTING HH with C2C2
     TESTING HH with HH
     FOUND H H
     TESTING HH with C1H
     TESTING HH with C2H
     TESTING HH with C1C1
     TESTING HH with C1C2
     TESTING HH with C2C2
     TESTING HH with HH
     FOUND H H
     TESTING HH with C1H
     TESTING HH with C2H
     TESTING HH with C1C1
     TESTING HH with C1C2
     TESTING HH with C2C2
     TESTING HH with HH
     FOUND H H
     TESTING HH with C1H
     TESTING HH with C2H
     TESTING HH with C1C1
     TESTING HH with C1C2
     TESTING HH with C2C2
     TESTING HH with HH
     FOUND H H
     TESTING HH with C1H
     TESTING HH with C2H
     TESTING HH with C1C1
     TESTING HH with C1C2
     TESTING HH with C2C2
     TESTING HH with HH
     FOUND H H
     TESTING HH with C1H
     TESTING HH with C2H
     TESTING HH with C1C1
     TESTING HH with C1C2
     TESTING HH with C2C2
 SPLINE_INFO| Generating: 21 splines due to 6 different atomic kinds

SPLINE_INFO|     Spline number:      1
SPLINE_INFO|     Spline number      1  Unique number      1   Kinds involved:      1      1
SPLINE_INFO|     Number of points used in the Splines:     62
SPLINE_INFO|     Accuracy requested:    0.000000100000
SPLINE_INFO|     Accuracy achieved:     0.000000080193
SPLINE_INFO|     RMIN and RMAX  used for spline (bohr):                   3.279238   18.897261
SPLINE_INFO|     RMIN and RMAX used to achieve spline accuracy (bohr):    4.434269   18.897261
SPLINE_INFO|     Spline value at RMIN (Hartree):    0.230621653
SPLINE_INFO|     Spline value at RMAX (Hartree):    0.000000000
SPLINE_INFO|     Electrostatic and Non-Bonded Cutoffs:    0.000000000   -0.000000985

SPLINE_INFO|     Spline number:      2
SPLINE_INFO|     Spline number      2  Unique number      5   Kinds involved:      2      1
SPLINE_INFO|     Number of points used in the Splines:     62
SPLINE_INFO|     Accuracy requested:    0.000000100000
SPLINE_INFO|     Accuracy achieved:     0.000000080193
SPLINE_INFO|     RMIN and RMAX  used for spline (bohr):                   3.279238   18.897261
SPLINE_INFO|     RMIN and RMAX used to achieve spline accuracy (bohr):    4.434269   18.897261
SPLINE_INFO|     Spline value at RMIN (Hartree):    0.230621653
SPLINE_INFO|     Spline value at RMAX (Hartree):    0.000000000
SPLINE_INFO|     Electrostatic and Non-Bonded Cutoffs:    0.000000000   -0.000000985

SPLINE_INFO|     Spline number:      3
SPLINE_INFO|     Spline number      3  Unique number      6   Kinds involved:      2      2
SPLINE_INFO|     Number of points used in the Splines:     62
SPLINE_INFO|     Accuracy requested:    0.000000100000
SPLINE_INFO|     Accuracy achieved:     0.000000080193
SPLINE_INFO|     RMIN and RMAX  used for spline (bohr):                   3.279238   18.897261
SPLINE_INFO|     RMIN and RMAX used to achieve spline accuracy (bohr):    4.434269   18.897261
SPLINE_INFO|     Spline value at RMIN (Hartree):    0.230621653
SPLINE_INFO|     Spline value at RMAX (Hartree):    0.000000000
SPLINE_INFO|     Electrostatic and Non-Bonded Cutoffs:    0.000000000   -0.000000985

SPLINE_INFO|     Spline number:      4
SPLINE_INFO|     Spline number      4  Unique number      2   Kinds involved:      3      1
SPLINE_INFO|     Number of points used in the Splines:     62
SPLINE_INFO|     Accuracy requested:    0.000000100000
SPLINE_INFO|     Accuracy achieved:     0.000000080193
SPLINE_INFO|     RMIN and RMAX  used for spline (bohr):                   3.279238   18.897261
SPLINE_INFO|     RMIN and RMAX used to achieve spline accuracy (bohr):    4.434269   18.897261
SPLINE_INFO|     Spline value at RMIN (Hartree):    0.230621653
SPLINE_INFO|     Spline value at RMAX (Hartree):    0.000000000
SPLINE_INFO|     Electrostatic and Non-Bonded Cutoffs:    0.000000000   -0.000000985

SPLINE_INFO|     Spline number:      5
SPLINE_INFO|     Spline number      5  Unique number      4   Kinds involved:      3      2
SPLINE_INFO|     Number of points used in the Splines:     62
SPLINE_INFO|     Accuracy requested:    0.000000100000
SPLINE_INFO|     Accuracy achieved:     0.000000080193
SPLINE_INFO|     RMIN and RMAX  used for spline (bohr):                   3.279238   18.897261
SPLINE_INFO|     RMIN and RMAX used to achieve spline accuracy (bohr):    4.434269   18.897261
SPLINE_INFO|     Spline value at RMIN (Hartree):    0.230621653
SPLINE_INFO|     Spline value at RMAX (Hartree):    0.000000000
SPLINE_INFO|     Electrostatic and Non-Bonded Cutoffs:    0.000000000   -0.000000985

SPLINE_INFO|     Spline number:      6
SPLINE_INFO|     Spline number      6  Unique number      3   Kinds involved:      3      3
SPLINE_INFO|     Number of points used in the Splines:     62
SPLINE_INFO|     Accuracy requested:    0.000000100000
SPLINE_INFO|     Accuracy achieved:     0.000000080193
SPLINE_INFO|     RMIN and RMAX  used for spline (bohr):                   3.279238   18.897261
SPLINE_INFO|     RMIN and RMAX used to achieve spline accuracy (bohr):    4.434269   18.897261
SPLINE_INFO|     Spline value at RMIN (Hartree):    0.230621653
SPLINE_INFO|     Spline value at RMAX (Hartree):    0.000000000
SPLINE_INFO|     Electrostatic and Non-Bonded Cutoffs:    0.000000000   -0.000000985

SPLINE_INFO|     Spline number:      7
SPLINE_INFO|     Spline number      7  Unique number      7   Kinds involved:      4      1
SPLINE_INFO|     Number of points used in the Splines:     35
SPLINE_INFO|     Accuracy requested:    0.000000100000
SPLINE_INFO|     Accuracy achieved:     0.000000086619
SPLINE_INFO|     RMIN and RMAX  used for spline (bohr):                   2.717723   18.897261
SPLINE_INFO|     RMIN and RMAX used to achieve spline accuracy (bohr):    3.820874   18.897261
SPLINE_INFO|     Spline value at RMIN (Hartree):    0.107539336
SPLINE_INFO|     Spline value at RMAX (Hartree):    0.000000000
SPLINE_INFO|     Electrostatic and Non-Bonded Cutoffs:    0.000000000   -0.000000154

SPLINE_INFO|     Spline number:      8
SPLINE_INFO|     Spline number      8  Unique number      9   Kinds involved:      4      2
SPLINE_INFO|     Number of points used in the Splines:     35
SPLINE_INFO|     Accuracy requested:    0.000000100000
SPLINE_INFO|     Accuracy achieved:     0.000000086619
SPLINE_INFO|     RMIN and RMAX  used for spline (bohr):                   2.717723   18.897261
SPLINE_INFO|     RMIN and RMAX used to achieve spline accuracy (bohr):    3.820874   18.897261
SPLINE_INFO|     Spline value at RMIN (Hartree):    0.107539336
SPLINE_INFO|     Spline value at RMAX (Hartree):    0.000000000
SPLINE_INFO|     Electrostatic and Non-Bonded Cutoffs:    0.000000000   -0.000000154

SPLINE_INFO|     Spline number:      9
SPLINE_INFO|     Spline number      9  Unique number      8   Kinds involved:      4      3
SPLINE_INFO|     Number of points used in the Splines:     35
SPLINE_INFO|     Accuracy requested:    0.000000100000
SPLINE_INFO|     Accuracy achieved:     0.000000086619
SPLINE_INFO|     RMIN and RMAX  used for spline (bohr):                   2.717723   18.897261
SPLINE_INFO|     RMIN and RMAX used to achieve spline accuracy (bohr):    3.820874   18.897261
SPLINE_INFO|     Spline value at RMIN (Hartree):    0.107539336
SPLINE_INFO|     Spline value at RMAX (Hartree):    0.000000000
SPLINE_INFO|     Electrostatic and Non-Bonded Cutoffs:    0.000000000   -0.000000154

SPLINE_INFO|     Spline number:     10
SPLINE_INFO|     Spline number     10  Unique number     10   Kinds involved:      4      4
SPLINE_INFO|     Number of points used in the Splines:     29
SPLINE_INFO|     Accuracy requested:    0.000000100000
SPLINE_INFO|     Accuracy achieved:     0.000000098101
SPLINE_INFO|     RMIN and RMAX  used for spline (bohr):                   1.826859   18.897261
SPLINE_INFO|     RMIN and RMAX used to achieve spline accuracy (bohr):    2.645303   18.897261
SPLINE_INFO|     Spline value at RMIN (Hartree):    0.040248176
SPLINE_INFO|     Spline value at RMAX (Hartree):    0.000000000
SPLINE_INFO|     Electrostatic and Non-Bonded Cutoffs:    0.000000000   -0.000000014

SPLINE_INFO|     Spline number:     11
SPLINE_INFO|     Spline number     11  Unique number     17   Kinds involved:      5      1
SPLINE_INFO|     Number of points used in the Splines:     35
SPLINE_INFO|     Accuracy requested:    0.000000100000
SPLINE_INFO|     Accuracy achieved:     0.000000086619
SPLINE_INFO|     RMIN and RMAX  used for spline (bohr):                   2.717723   18.897261
SPLINE_INFO|     RMIN and RMAX used to achieve spline accuracy (bohr):    3.820874   18.897261
SPLINE_INFO|     Spline value at RMIN (Hartree):    0.107539336
SPLINE_INFO|     Spline value at RMAX (Hartree):    0.000000000
SPLINE_INFO|     Electrostatic and Non-Bonded Cutoffs:    0.000000000   -0.000000154

SPLINE_INFO|     Spline number:     12
SPLINE_INFO|     Spline number     12  Unique number     19   Kinds involved:      5      2
SPLINE_INFO|     Number of points used in the Splines:     35
SPLINE_INFO|     Accuracy requested:    0.000000100000
SPLINE_INFO|     Accuracy achieved:     0.000000086619
SPLINE_INFO|     RMIN and RMAX  used for spline (bohr):                   2.717723   18.897261
SPLINE_INFO|     RMIN and RMAX used to achieve spline accuracy (bohr):    3.820874   18.897261
SPLINE_INFO|     Spline value at RMIN (Hartree):    0.107539336
SPLINE_INFO|     Spline value at RMAX (Hartree):    0.000000000
SPLINE_INFO|     Electrostatic and Non-Bonded Cutoffs:    0.000000000   -0.000000154

SPLINE_INFO|     Spline number:     13
SPLINE_INFO|     Spline number     13  Unique number     18   Kinds involved:      5      3
SPLINE_INFO|     Number of points used in the Splines:     35
SPLINE_INFO|     Accuracy requested:    0.000000100000
SPLINE_INFO|     Accuracy achieved:     0.000000086619
SPLINE_INFO|     RMIN and RMAX  used for spline (bohr):                   2.717723   18.897261
SPLINE_INFO|     RMIN and RMAX used to achieve spline accuracy (bohr):    3.820874   18.897261
SPLINE_INFO|     Spline value at RMIN (Hartree):    0.107539336
SPLINE_INFO|     Spline value at RMAX (Hartree):    0.000000000
SPLINE_INFO|     Electrostatic and Non-Bonded Cutoffs:    0.000000000   -0.000000154

SPLINE_INFO|     Spline number:     14
SPLINE_INFO|     Spline number     14  Unique number     20   Kinds involved:      5      4
SPLINE_INFO|     Number of points used in the Splines:     29
SPLINE_INFO|     Accuracy requested:    0.000000100000
SPLINE_INFO|     Accuracy achieved:     0.000000098101
SPLINE_INFO|     RMIN and RMAX  used for spline (bohr):                   1.826859   18.897261
SPLINE_INFO|     RMIN and RMAX used to achieve spline accuracy (bohr):    2.645303   18.897261
SPLINE_INFO|     Spline value at RMIN (Hartree):    0.040248176
SPLINE_INFO|     Spline value at RMAX (Hartree):    0.000000000
SPLINE_INFO|     Electrostatic and Non-Bonded Cutoffs:    0.000000000   -0.000000014

SPLINE_INFO|     Spline number:     15
SPLINE_INFO|     Spline number     15  Unique number     21   Kinds involved:      5      5
SPLINE_INFO|     Number of points used in the Splines:     29
SPLINE_INFO|     Accuracy requested:    0.000000100000
SPLINE_INFO|     Accuracy achieved:     0.000000098101
SPLINE_INFO|     RMIN and RMAX  used for spline (bohr):                   1.826859   18.897261
SPLINE_INFO|     RMIN and RMAX used to achieve spline accuracy (bohr):    2.645303   18.897261
SPLINE_INFO|     Spline value at RMIN (Hartree):    0.040248176
SPLINE_INFO|     Spline value at RMAX (Hartree):    0.000000000
SPLINE_INFO|     Electrostatic and Non-Bonded Cutoffs:    0.000000000   -0.000000014

SPLINE_INFO|     Spline number:     16
SPLINE_INFO|     Spline number     16  Unique number     11   Kinds involved:      6      1
SPLINE_INFO|     Number of points used in the Splines:     35
SPLINE_INFO|     Accuracy requested:    0.000000100000
SPLINE_INFO|     Accuracy achieved:     0.000000086619
SPLINE_INFO|     RMIN and RMAX  used for spline (bohr):                   2.717723   18.897261
SPLINE_INFO|     RMIN and RMAX used to achieve spline accuracy (bohr):    3.820874   18.897261
SPLINE_INFO|     Spline value at RMIN (Hartree):    0.107539336
SPLINE_INFO|     Spline value at RMAX (Hartree):    0.000000000
SPLINE_INFO|     Electrostatic and Non-Bonded Cutoffs:    0.000000000   -0.000000154

SPLINE_INFO|     Spline number:     17
SPLINE_INFO|     Spline number     17  Unique number     13   Kinds involved:      6      2
SPLINE_INFO|     Number of points used in the Splines:     35
SPLINE_INFO|     Accuracy requested:    0.000000100000
SPLINE_INFO|     Accuracy achieved:     0.000000086619
SPLINE_INFO|     RMIN and RMAX  used for spline (bohr):                   2.717723   18.897261
SPLINE_INFO|     RMIN and RMAX used to achieve spline accuracy (bohr):    3.820874   18.897261
SPLINE_INFO|     Spline value at RMIN (Hartree):    0.107539336
SPLINE_INFO|     Spline value at RMAX (Hartree):    0.000000000
SPLINE_INFO|     Electrostatic and Non-Bonded Cutoffs:    0.000000000   -0.000000154

SPLINE_INFO|     Spline number:     18
SPLINE_INFO|     Spline number     18  Unique number     12   Kinds involved:      6      3
SPLINE_INFO|     Number of points used in the Splines:     35
SPLINE_INFO|     Accuracy requested:    0.000000100000
SPLINE_INFO|     Accuracy achieved:     0.000000086619
SPLINE_INFO|     RMIN and RMAX  used for spline (bohr):                   2.717723   18.897261
SPLINE_INFO|     RMIN and RMAX used to achieve spline accuracy (bohr):    3.820874   18.897261
SPLINE_INFO|     Spline value at RMIN (Hartree):    0.107539336
SPLINE_INFO|     Spline value at RMAX (Hartree):    0.000000000
SPLINE_INFO|     Electrostatic and Non-Bonded Cutoffs:    0.000000000   -0.000000154

SPLINE_INFO|     Spline number:     19
SPLINE_INFO|     Spline number     19  Unique number     14   Kinds involved:      6      4
SPLINE_INFO|     Number of points used in the Splines:     29
SPLINE_INFO|     Accuracy requested:    0.000000100000
SPLINE_INFO|     Accuracy achieved:     0.000000098101
SPLINE_INFO|     RMIN and RMAX  used for spline (bohr):                   1.826859   18.897261
SPLINE_INFO|     RMIN and RMAX used to achieve spline accuracy (bohr):    2.645303   18.897261
SPLINE_INFO|     Spline value at RMIN (Hartree):    0.040248176
SPLINE_INFO|     Spline value at RMAX (Hartree):    0.000000000
SPLINE_INFO|     Electrostatic and Non-Bonded Cutoffs:    0.000000000   -0.000000014

SPLINE_INFO|     Spline number:     20
SPLINE_INFO|     Spline number     20  Unique number     16   Kinds involved:      6      5
SPLINE_INFO|     Number of points used in the Splines:     29
SPLINE_INFO|     Accuracy requested:    0.000000100000
SPLINE_INFO|     Accuracy achieved:     0.000000098101
SPLINE_INFO|     RMIN and RMAX  used for spline (bohr):                   1.826859   18.897261
SPLINE_INFO|     RMIN and RMAX used to achieve spline accuracy (bohr):    2.645303   18.897261
SPLINE_INFO|     Spline value at RMIN (Hartree):    0.040248176
SPLINE_INFO|     Spline value at RMAX (Hartree):    0.000000000
SPLINE_INFO|     Electrostatic and Non-Bonded Cutoffs:    0.000000000   -0.000000014

SPLINE_INFO|     Spline number:     21
SPLINE_INFO|     Spline number     21  Unique number     15   Kinds involved:      6      6
SPLINE_INFO|     Number of points used in the Splines:     29
SPLINE_INFO|     Accuracy requested:    0.000000100000
SPLINE_INFO|     Accuracy achieved:     0.000000098101
SPLINE_INFO|     RMIN and RMAX  used for spline (bohr):                   1.826859   18.897261
SPLINE_INFO|     RMIN and RMAX used to achieve spline accuracy (bohr):    2.645303   18.897261
SPLINE_INFO|     Spline value at RMIN (Hartree):    0.040248176
SPLINE_INFO|     Spline value at RMAX (Hartree):    0.000000000
SPLINE_INFO|     Electrostatic and Non-Bonded Cutoffs:    0.000000000   -0.000000014

SPLINE_INFO|     Number of pair potential Splines allocated:     21
 SPLINE_INFO| Number of unique splines computed:     21
 SPLINE_INFO| Done
     ONE-FOUR  1  : C1 C2
     ONE-FOUR  2  : C1 H
     ONE-FOUR  3  : C1 H
     ONE-FOUR  4  : C2 C1
     ONE-FOUR  5  : C2 H
     ONE-FOUR  6  : C2 H
     ONE-FOUR  7  : C2 H
     ONE-FOUR  8  : C2 H
     ONE-FOUR  9  : C2 H
     ONE-FOUR  10  : C2 H
     ONE-FOUR  11  : C2 H
     ONE-FOUR  12  : C2 H
     ONE-FOUR  13  : C2 H
     ONE-FOUR  14  : C2 H
     ONE-FOUR  15  : H H
     ONE-FOUR  16  : H H
     ONE-FOUR  17  : H H
     ONE-FOUR  18  : H H
     ONE-FOUR  19  : H H
     ONE-FOUR  20  : H H
     ONE-FOUR  21  : H H
     ONE-FOUR  22  : H H
     ONE-FOUR  23  : H H
     ONE-FOUR  24  : H H
     ONE-FOUR  25  : H C1
     ONE-FOUR  26  : H H
     ONE-FOUR  27  : H H
     ONE-FOUR  28  : H C1
     ONE-FOUR  29  : H H
     ONE-FOUR  30  : H H
     ONE-FOUR  31  : H H
     ONE-FOUR  32  : H H
     ONE-FOUR  33  : H H
     ONE-FOUR  34  : H H
     ONE-FOUR  35  : H H
     ONE-FOUR  36  : H H
     TESTING C1C1 with HH
     TESTING C1C1 with C1H
     TESTING C1C1 with C2H
     TESTING C1C1 with C1C1
     FOUND C1 C1
     TESTING C1C1 with C1C2
     TESTING C1C1 with C2C2
     TESTING C1C2 with HH
     TESTING C1C2 with C1H
     TESTING C1C2 with C2H
     TESTING C1C2 with C1C1
     TESTING C1C2 with C1C2
     FOUND C1 C2
     TESTING C1C2 with C2C2
     TESTING C1C2 with HH
     TESTING C1C2 with C1H
     TESTING C1C2 with C2H
     TESTING C1C2 with C1C1
     TESTING C1C2 with C1C2
     FOUND C1 C2
     TESTING C1C2 with C2C2
     TESTING C1H with HH
     TESTING C1H with C1H
     FOUND C1 H
     TESTING C1H with C2H
     TESTING C1H with C1C1
     TESTING C1H with C1C2
     TESTING C1H with C2C2
     TESTING C1H with HH
     TESTING C1H with C1H
     FOUND C1 H
     TESTING C1H with C2H
     TESTING C1H with C1C1
     TESTING C1H with C1C2
     TESTING C1H with C2C2
     TESTING C1H with HH
     TESTING C1H with C1H
     FOUND C1 H
     TESTING C1H with C2H
     TESTING C1H with C1C1
     TESTING C1H with C1C2
     TESTING C1H with C2C2
     TESTING C2C2 with HH
     TESTING C2C2 with C1H
     TESTING C2C2 with C2H
     TESTING C2C2 with C1C1
     TESTING C2C2 with C1C2
     TESTING C2C2 with C2C2
     FOUND C2 C2
     TESTING C2C2 with HH
     TESTING C2C2 with C1H
     TESTING C2C2 with C2H
     TESTING C2C2 with C1C1
     TESTING C2C2 with C1C2
     TESTING C2C2 with C2C2
     FOUND C2 C2
     TESTING C2H with HH
     TESTING C2H with C1H
     TESTING C2H with C2H
     FOUND C2 H
     TESTING C2H with C1C1
     TESTING C2H with C1C2
     TESTING C2H with C2C2
     TESTING C2H with HH
     TESTING C2H with C1H
     TESTING C2H with C2H
     FOUND C2 H
     TESTING C2H with C1C1
     TESTING C2H with C1C2
     TESTING C2H with C2C2
     TESTING C2H with HH
     TESTING C2H with C1H
     TESTING C2H with C2H
     FOUND C2 H
     TESTING C2H with C1C1
     TESTING C2H with C1C2
     TESTING C2H with C2C2
     TESTING C2C2 with HH
     TESTING C2C2 with C1H
     TESTING C2C2 with C2H
     TESTING C2C2 with C1C1
     TESTING C2C2 with C1C2
     TESTING C2C2 with C2C2
     FOUND C2 C2
     TESTING C2H with HH
     TESTING C2H with C1H
     TESTING C2H with C2H
     FOUND C2 H
     TESTING C2H with C1C1
     TESTING C2H with C1C2
     TESTING C2H with C2C2
     TESTING C2H with HH
     TESTING C2H with C1H
     TESTING C2H with C2H
     FOUND C2 H
     TESTING C2H with C1C1
     TESTING C2H with C1C2
     TESTING C2H with C2C2
     TESTING C2H with HH
     TESTING C2H with C1H
     TESTING C2H with C2H
     FOUND C2 H
     TESTING C2H with C1C1
     TESTING C2H with C1C2
     TESTING C2H with C2C2
     TESTING HH with HH
     FOUND H H
     TESTING HH with C1H
     TESTING HH with C2H
     TESTING HH with C1C1
     TESTING HH with C1C2
     TESTING HH with C2C2
     TESTING HH with HH
     FOUND H H
     TESTING HH with C1H
     TESTING HH with C2H
     TESTING HH with C1C1
     TESTING HH with C1C2
     TESTING HH with C2C2
     TESTING HH with HH
     FOUND H H
     TESTING HH with C1H
     TESTING HH with C2H
     TESTING HH with C1C1
     TESTING HH with C1C2
     TESTING HH with C2C2
     TESTING HH with HH
     FOUND H H
     TESTING HH with C1H
     TESTING HH with C2H
     TESTING HH with C1C1
     TESTING HH with C1C2
     TESTING HH with C2C2
     TESTING HH with HH
     FOUND H H
     TESTING HH with C1H
     TESTING HH with C2H
     TESTING HH with C1C1
     TESTING HH with C1C2
     TESTING HH with C2C2
     TESTING HH with HH
     FOUND H H
     TESTING HH with C1H
     TESTING HH with C2H
     TESTING HH with C1C1
     TESTING HH with C1C2
     TESTING HH with C2C2
 SPLINE_INFO| Generating: 21 splines due to 6 different atomic kinds

SPLINE_INFO|     Spline number:      1
SPLINE_INFO|     Spline number      1  Unique number      1   Kinds involved:      1      1
SPLINE_INFO|     Number of points used in the Splines:    567
SPLINE_INFO|     Accuracy requested:    0.000000100000
SPLINE_INFO|     Accuracy achieved:     0.000000083333
SPLINE_INFO|     RMIN and RMAX  used for spline (bohr):                   3.284637   18.897261
SPLINE_INFO|     RMIN and RMAX used to achieve spline accuracy (bohr):    4.545318   18.897261
SPLINE_INFO|     Spline value at RMIN (Hartree):    0.460052077
SPLINE_INFO|     Spline value at RMAX (Hartree):    0.000000000
SPLINE_INFO|     Electrostatic and Non-Bonded Cutoffs:    0.002097701   -0.000000985

SPLINE_INFO|     Spline number:      2
SPLINE_INFO|     Spline number      2  Unique number      5   Kinds involved:      2      1
SPLINE_INFO|     Number of points used in the Splines:    472
SPLINE_INFO|     Accuracy requested:    0.000000100000
SPLINE_INFO|     Accuracy achieved:     0.000000084388
SPLINE_INFO|     RMIN and RMAX  used for spline (bohr):                   3.282837   18.897261
SPLINE_INFO|     RMIN and RMAX used to achieve spline accuracy (bohr):    4.493104   18.897261
SPLINE_INFO|     Spline value at RMIN (Hartree):    0.451739135
SPLINE_INFO|     Spline value at RMAX (Hartree):    0.000000000
SPLINE_INFO|     Electrostatic and Non-Bonded Cutoffs:    0.001462385   -0.000000985

SPLINE_INFO|     Spline number:      3
SPLINE_INFO|     Spline number      3  Unique number      6   Kinds involved:      2      2
SPLINE_INFO|     Number of points used in the Splines:    393
SPLINE_INFO|     Accuracy requested:    0.000000100000
SPLINE_INFO|     Accuracy achieved:     0.000000085578
SPLINE_INFO|     RMIN and RMAX  used for spline (bohr):                   3.281038   18.897261
SPLINE_INFO|     RMIN and RMAX used to achieve spline accuracy (bohr):    4.464566   18.897261
SPLINE_INFO|     Spline value at RMIN (Hartree):    0.442867299
SPLINE_INFO|     Spline value at RMAX (Hartree):    0.000000000
SPLINE_INFO|     Electrostatic and Non-Bonded Cutoffs:    0.001019483   -0.000000985

SPLINE_INFO|     Spline number:      4
SPLINE_INFO|     Spline number      4  Unique number      2   Kinds involved:      3      1
SPLINE_INFO|     Number of points used in the Splines:    472
SPLINE_INFO|     Accuracy requested:    0.000000100000
SPLINE_INFO|     Accuracy achieved:     0.000000089771
SPLINE_INFO|     RMIN and RMAX  used for spline (bohr):                   3.282837   18.897261
SPLINE_INFO|     RMIN and RMAX used to achieve spline accuracy (bohr):    4.499718   18.897261
SPLINE_INFO|     Spline value at RMIN (Hartree):    0.452184717
SPLINE_INFO|     Spline value at RMAX (Hartree):    0.000000000
SPLINE_INFO|     Electrostatic and Non-Bonded Cutoffs:    0.001557209   -0.000000985

SPLINE_INFO|     Spline number:      5
SPLINE_INFO|     Spline number      5  Unique number      4   Kinds involved:      3      2
SPLINE_INFO|     Number of points used in the Splines:    393
SPLINE_INFO|     Accuracy requested:    0.000000100000
SPLINE_INFO|     Accuracy achieved:     0.000000090998
SPLINE_INFO|     RMIN and RMAX  used for spline (bohr):                   3.281038   18.897261
SPLINE_INFO|     RMIN and RMAX used to achieve spline accuracy (bohr):    4.464566   18.897261
SPLINE_INFO|     Spline value at RMIN (Hartree):    0.443177383
SPLINE_INFO|     Spline value at RMAX (Hartree):    0.000000000
SPLINE_INFO|     Electrostatic and Non-Bonded Cutoffs:    0.001085588   -0.000000985

SPLINE_INFO|     Spline number:      6
SPLINE_INFO|     Spline number      6  Unique number      3   Kinds involved:      3      3
SPLINE_INFO|     Number of points used in the Splines:    393
SPLINE_INFO|     Accuracy requested:    0.000000100000
SPLINE_INFO|     Accuracy achieved:     0.000000096770
SPLINE_INFO|     RMIN and RMAX  used for spline (bohr):                   3.281038   18.897261
SPLINE_INFO|     RMIN and RMAX used to achieve spline accuracy (bohr):    4.472509   18.897261
SPLINE_INFO|     Spline value at RMIN (Hartree):    0.443507573
SPLINE_INFO|     Spline value at RMAX (Hartree):    0.000000000
SPLINE_INFO|     Electrostatic and Non-Bonded Cutoffs:    0.001155979   -0.000000985

SPLINE_INFO|     Spline number:      7
SPLINE_INFO|     Spline number      7  Unique number      7   Kinds involved:      4      1
SPLINE_INFO|     Number of points used in the Splines:    472
SPLINE_INFO|     Accuracy requested:    0.000000100000
SPLINE_INFO|     Accuracy achieved:     0.000000084648
SPLINE_INFO|     RMIN and RMAX  used for spline (bohr):                   2.715924   18.897261
SPLINE_INFO|     RMIN and RMAX used to achieve spline accuracy (bohr):    3.689134   18.897261
SPLINE_INFO|     Spline value at RMIN (Hartree):    0.440894905
SPLINE_INFO|     Spline value at RMAX (Hartree):    0.000000000
SPLINE_INFO|     Electrostatic and Non-Bonded Cutoffs:   -0.000690103   -0.000000154

SPLINE_INFO|     Spline number:      8
SPLINE_INFO|     Spline number      8  Unique number      9   Kinds involved:      4      2
SPLINE_INFO|     Number of points used in the Splines:    393
SPLINE_INFO|     Accuracy requested:    0.000000100000
SPLINE_INFO|     Accuracy achieved:     0.000000084773
SPLINE_INFO|     RMIN and RMAX  used for spline (bohr):                   2.715924   18.897261
SPLINE_INFO|     RMIN and RMAX used to achieve spline accuracy (bohr):    3.703594   18.897261
SPLINE_INFO|     Spline value at RMIN (Hartree):    0.431155132
SPLINE_INFO|     Spline value at RMAX (Hartree):    0.000000000
SPLINE_INFO|     Electrostatic and Non-Bonded Cutoffs:   -0.000481096   -0.000000154

SPLINE_INFO|     Spline number:      9
SPLINE_INFO|     Spline number      9  Unique number      8   Kinds involved:      4      3
SPLINE_INFO|     Number of points used in the Splines:    393
SPLINE_INFO|     Accuracy requested:    0.000000100000
SPLINE_INFO|     Accuracy achieved:     0.000000090310
SPLINE_INFO|     RMIN and RMAX  used for spline (bohr):                   2.715924   18.897261
SPLINE_INFO|     RMIN and RMAX used to achieve spline accuracy (bohr):    3.703594   18.897261
SPLINE_INFO|     Spline value at RMIN (Hartree):    0.430972508
SPLINE_INFO|     Spline value at RMAX (Hartree):    0.000000000
SPLINE_INFO|     Electrostatic and Non-Bonded Cutoffs:   -0.000512291   -0.000000154

SPLINE_INFO|     Spline number:     10
SPLINE_INFO|     Spline number     10  Unique number     10   Kinds involved:      4      4
SPLINE_INFO|     Number of points used in the Splines:    567
SPLINE_INFO|     Accuracy requested:    0.000000100000
SPLINE_INFO|     Accuracy achieved:     0.000000096113
SPLINE_INFO|     RMIN and RMAX  used for spline (bohr):                   1.826859   18.897261
SPLINE_INFO|     RMIN and RMAX used to achieve spline accuracy (bohr):    2.609353   18.897261
SPLINE_INFO|     Spline value at RMIN (Hartree):    0.432421546
SPLINE_INFO|     Spline value at RMAX (Hartree):    0.000000000
SPLINE_INFO|     Electrostatic and Non-Bonded Cutoffs:    0.000227030   -0.000000014

SPLINE_INFO|     Spline number:     11
SPLINE_INFO|     Spline number     11  Unique number     17   Kinds involved:      5      1
SPLINE_INFO|     Number of points used in the Splines:    472
SPLINE_INFO|     Accuracy requested:    0.000000100000
SPLINE_INFO|     Accuracy achieved:     0.000000092560
SPLINE_INFO|     RMIN and RMAX  used for spline (bohr):                   2.714124   18.897261
SPLINE_INFO|     RMIN and RMAX used to achieve spline accuracy (bohr):    3.687443   18.897261
SPLINE_INFO|     Spline value at RMIN (Hartree):    0.443450079
SPLINE_INFO|     Spline value at RMAX (Hartree):    0.000000000
SPLINE_INFO|     Electrostatic and Non-Bonded Cutoffs:   -0.000752265   -0.000000154

SPLINE_INFO|     Spline number:     12
SPLINE_INFO|     Spline number     12  Unique number     19   Kinds involved:      5      2
SPLINE_INFO|     Number of points used in the Splines:    393
SPLINE_INFO|     Accuracy requested:    0.000000100000
SPLINE_INFO|     Accuracy achieved:     0.000000092464
SPLINE_INFO|     RMIN and RMAX  used for spline (bohr):                   2.715924   18.897261
SPLINE_INFO|     RMIN and RMAX used to achieve spline accuracy (bohr):    3.703594   18.897261
SPLINE_INFO|     Spline value at RMIN (Hartree):    0.430901434
SPLINE_INFO|     Spline value at RMAX (Hartree):    0.000000000
SPLINE_INFO|     Electrostatic and Non-Bonded Cutoffs:   -0.000524432   -0.000000154

SPLINE_INFO|     Spline number:     13
SPLINE_INFO|     Spline number     13  Unique number     18   Kinds involved:      5      3
SPLINE_INFO|     Number of points used in the Splines:    393
SPLINE_INFO|     Accuracy requested:    0.000000100000
SPLINE_INFO|     Accuracy achieved:     0.000000098500
SPLINE_INFO|     RMIN and RMAX  used for spline (bohr):                   2.715924   18.897261
SPLINE_INFO|     RMIN and RMAX used to achieve spline accuracy (bohr):    3.703594   18.897261
SPLINE_INFO|     Spline value at RMIN (Hartree):    0.430702359
SPLINE_INFO|     Spline value at RMAX (Hartree):    0.000000000
SPLINE_INFO|     Electrostatic and Non-Bonded Cutoffs:   -0.000558436   -0.000000154

SPLINE_INFO|     Spline number:     14
SPLINE_INFO|     Spline number     14  Unique number     20   Kinds involved:      5      4
SPLINE_INFO|     Number of points used in the Splines:    681
SPLINE_INFO|     Accuracy requested:    0.000000100000
SPLINE_INFO|     Accuracy achieved:     0.000000072923
SPLINE_INFO|     RMIN and RMAX  used for spline (bohr):                   1.826859   18.897261
SPLINE_INFO|     RMIN and RMAX used to achieve spline accuracy (bohr):    2.608709   18.897261
SPLINE_INFO|     Spline value at RMIN (Hartree):    0.443663836
SPLINE_INFO|     Spline value at RMAX (Hartree):    0.000000000
SPLINE_INFO|     Electrostatic and Non-Bonded Cutoffs:    0.000247480   -0.000000014

SPLINE_INFO|     Spline number:     15
SPLINE_INFO|     Spline number     15  Unique number     21   Kinds involved:      5      5
SPLINE_INFO|     Number of points used in the Splines:    681
SPLINE_INFO|     Accuracy requested:    0.000000100000
SPLINE_INFO|     Accuracy achieved:     0.000000079483
SPLINE_INFO|     RMIN and RMAX  used for spline (bohr):                   1.826859   18.897261
SPLINE_INFO|     RMIN and RMAX used to achieve spline accuracy (bohr):    2.608709   18.897261
SPLINE_INFO|     Spline value at RMIN (Hartree):    0.443869020
SPLINE_INFO|     Spline value at RMAX (Hartree):    0.000000000
SPLINE_INFO|     Electrostatic and Non-Bonded Cutoffs:    0.000269772   -0.000000014

SPLINE_INFO|     Spline number:     16
SPLINE_INFO|     Spline number     16  Unique number     11   Kinds involved:      6      1
SPLINE_INFO|     Number of points used in the Splines:    472
SPLINE_INFO|     Accuracy requested:    0.000000100000
SPLINE_INFO|     Accuracy achieved:     0.000000085817
SPLINE_INFO|     RMIN and RMAX  used for spline (bohr):                   2.715924   18.897261
SPLINE_INFO|     RMIN and RMAX used to achieve spline accuracy (bohr):    3.689134   18.897261
SPLINE_INFO|     Spline value at RMIN (Hartree):    0.440839231
SPLINE_INFO|     Spline value at RMAX (Hartree):    0.000000000
SPLINE_INFO|     Electrostatic and Non-Bonded Cutoffs:   -0.000699585   -0.000000154

SPLINE_INFO|     Spline number:     17
SPLINE_INFO|     Spline number     17  Unique number     13   Kinds involved:      6      2
SPLINE_INFO|     Number of points used in the Splines:    393
SPLINE_INFO|     Accuracy requested:    0.000000100000
SPLINE_INFO|     Accuracy achieved:     0.000000085946
SPLINE_INFO|     RMIN and RMAX  used for spline (bohr):                   2.715924   18.897261
SPLINE_INFO|     RMIN and RMAX used to achieve spline accuracy (bohr):    3.703594   18.897261
SPLINE_INFO|     Spline value at RMIN (Hartree):    0.431116433
SPLINE_INFO|     Spline value at RMAX (Hartree):    0.000000000
SPLINE_INFO|     Electrostatic and Non-Bonded Cutoffs:   -0.000487707   -0.000000154

SPLINE_INFO|     Spline number:     18
SPLINE_INFO|     Spline number     18  Unique number     12   Kinds involved:      6      3
SPLINE_INFO|     Number of points used in the Splines:    393
SPLINE_INFO|     Accuracy requested:    0.000000100000
SPLINE_INFO|     Accuracy achieved:     0.000000091559
SPLINE_INFO|     RMIN and RMAX  used for spline (bohr):                   2.715924   18.897261
SPLINE_INFO|     RMIN and RMAX used to achieve spline accuracy (bohr):    3.703594   18.897261
SPLINE_INFO|     Spline value at RMIN (Hartree):    0.430931298
SPLINE_INFO|     Spline value at RMAX (Hartree):    0.000000000
SPLINE_INFO|     Electrostatic and Non-Bonded Cutoffs:   -0.000519330   -0.000000154

SPLINE_INFO|     Spline number:     19
SPLINE_INFO|     Spline number     19  Unique number     14   Kinds involved:      6      4
SPLINE_INFO|     Number of points used in the Splines:    567
SPLINE_INFO|     Accuracy requested:    0.000000100000
SPLINE_INFO|     Accuracy achieved:     0.000000097432
SPLINE_INFO|     RMIN and RMAX  used for spline (bohr):                   1.826859   18.897261
SPLINE_INFO|     RMIN and RMAX used to achieve spline accuracy (bohr):    2.609353   18.897261
SPLINE_INFO|     Spline value at RMIN (Hartree):    0.432450173
SPLINE_INFO|     Spline value at RMAX (Hartree):    0.000000000
SPLINE_INFO|     Electrostatic and Non-Bonded Cutoffs:    0.000230150   -0.000000014

SPLINE_INFO|     Spline number:     20
SPLINE_INFO|     Spline number     20  Unique number     16   Kinds involved:      6      5
SPLINE_INFO|     Number of points used in the Splines:    681
SPLINE_INFO|     Accuracy requested:    0.000000100000
SPLINE_INFO|     Accuracy achieved:     0.000000073924
SPLINE_INFO|     RMIN and RMAX  used for spline (bohr):                   1.826859   18.897261
SPLINE_INFO|     RMIN and RMAX used to achieve spline accuracy (bohr):    2.608709   18.897261
SPLINE_INFO|     Spline value at RMIN (Hartree):    0.443695136
SPLINE_INFO|     Spline value at RMAX (Hartree):    0.000000000
SPLINE_INFO|     Electrostatic and Non-Bonded Cutoffs:    0.000250881   -0.000000014

SPLINE_INFO|     Spline number:     21
SPLINE_INFO|     Spline number     21  Unique number     15   Kinds involved:      6      6
SPLINE_INFO|     Number of points used in the Splines:    567
SPLINE_INFO|     Accuracy requested:    0.000000100000
SPLINE_INFO|     Accuracy achieved:     0.000000098769
SPLINE_INFO|     RMIN and RMAX  used for spline (bohr):                   1.826859   18.897261
SPLINE_INFO|     RMIN and RMAX used to achieve spline accuracy (bohr):    2.609353   18.897261
SPLINE_INFO|     Spline value at RMIN (Hartree):    0.432479193
SPLINE_INFO|     Spline value at RMAX (Hartree):    0.000000000
SPLINE_INFO|     Electrostatic and Non-Bonded Cutoffs:    0.000233312   -0.000000014

SPLINE_INFO|     Number of pair potential Splines allocated:     21
 SPLINE_INFO| Number of unique splines computed:     21
 SPLINE_INFO| Done
       atom  1  C1 charge =  -0.1991
       atom  2  C2 charge =  -0.1388
       atom  3  C2 charge =  -0.1478
       atom  4  C2 charge =  -0.1388
       atom  5  H charge =  0.0655
       atom  6  H charge =  0.0655
       atom  7  H charge =  0.0714
       atom  8  H charge =  0.0714
       atom  9  H charge =  0.0714
       atom  10  H charge =  0.0664
       atom  11  H charge =  0.0664
       atom  12  C1 charge =  -0.1991
       atom  13  H charge =  0.0655
       atom  14  H charge =  0.0655
       atom  15  H charge =  0.0714
       atom  16  H charge =  0.0714
       atom  17  H charge =  0.0714
     Mol Kind NM00 charge =  -0.00039999999999981717
       atom  1  C1 charge =  -0.1991
       atom  2  C2 charge =  -0.1388
       atom  3  C2 charge =  -0.1478
       atom  4  C2 charge =  -0.1388
       atom  5  H charge =  0.0655
       atom  6  H charge =  0.0655
       atom  7  H charge =  0.0714
       atom  8  H charge =  0.0714
       atom  9  H charge =  0.0714
       atom  10  H charge =  0.0664
       atom  11  H charge =  0.0664
       atom  12  C1 charge =  -0.1991
       atom  13  H charge =  0.0655
       atom  14  H charge =  0.0655
       atom  15  H charge =  0.0714
       atom  16  H charge =  0.0714
       atom  17  H charge =  0.0714
     Total system charge =  -0.00039999999999981717
     Total system mass   =  131519.18021573604
     Mol( 1 ) Old BOND Count:  16 4
     1     2
     1     7
     1     8
     1     9
     2     3
     2     5
     2     6
     3     4
     3    10
     3    11
     4    12
     4    13
     4    14
    12    15
    12    16
    12    17
     Mol( 1 ) Old BEND Count:  30 7
     3     2     1
     4     3     2
     5     2     1
     5     2     3
     6     2     1
     6     2     3
     6     2     5
     7     1     2
     8     1     2
     8     1     7
     9     1     2
     9     1     7
     9     1     8
    10     3     2
    10     3     4
    11     3     2
    11     3     4
    11     3    10
    12     4     3
    13     4     3
    13     4    12
    14     4     3
    14     4    12
    14     4    13
    15    12     4
    16    12     4
    16    12    15
    17    12     4
    17    12    15
    17    12    16
     Mol( 1 ) Old UB Count:  30 7
     3     2     1
     4     3     2
     5     2     1
     5     2     3
     6     2     1
     6     2     3
     6     2     5
     7     1     2
     8     1     2
     8     1     7
     9     1     2
     9     1     7
     9     1     8
    10     3     2
    10     3     4
    11     3     2
    11     3     4
    11     3    10
    12     4     3
    13     4     3
    13     4    12
    14     4     3
    14     4    12
    14     4    13
    15    12     4
    16    12     4
    16    12    15
    17    12     4
    17    12    15
    17    12    16
     Mol( 1 ) Old TORSION Count:  36 6
     1     2     3     4
     1     2     3    10
     1     2     3    11
     2     3     4    12
     2     3     4    13
     2     3     4    14
     3     4    12    15
     3     4    12    16
     3     4    12    17
     5     2     3     4
     5     2     3    10
     5     2     3    11
     6     2     3     4
     6     2     3    10
     6     2     3    11
     7     1     2     3
     7     1     2     5
     7     1     2     6
     8     1     2     3
     8     1     2     5
     8     1     2     6
     9     1     2     3
     9     1     2     5
     9     1     2     6
    10     3     4    12
    10     3     4    13
    10     3     4    14
    11     3     4    12
    11     3     4    13
    11     3     4    14
    13     4    12    15
    13     4    12    16
    13     4    12    17
    14     4    12    15
    14     4    12    16
    14     4    12    17


 MOLECULE KIND INFORMATION

     1. Molecule kind: NM00                      Number of atoms:             17
                     Atom         Atomic kind name             Atom name (label)
                        1                       C1                            C1
                        2                       C2                            C2
                        3                       C2                            C2
                        4                       C2                            C2
                        5                        H                             H
                        6                        H                             H
                        7                        H                             H
                        8                        H                             H
                        9                        H                             H
                       10                        H                             H
                       11                        H                             H
                       12                       C1                            C1
                       13                        H                             H
                       14                        H                             H
                       15                        H                             H
                       16                        H                             H
                       17                        H                             H

        The name was automatically generated: T
        Number of molecules:     1
        Molecule list:           1
        Number of bonds:           16
        Number of bends:           30
        Number of Urey-Bradley:    30
        Number of torsions:        36
        Number of one-four:        36


 MOLECULE KIND SET INFORMATION               Total Number of bonds:           16
                                             Total Number of bends:           30
                                             Total Number of Urey-Bradley:    30
                                             Total Number of torsions:        36
                                             Total Number of improper:         0
                                             Total Number of one-four:        36


 MODULE FIST:  ATOMIC COORDINATES IN ANGSTROM

  Atom  Kind  ATM_TYP       X           Y           Z          q(eff)       Mass

     1    1   C1        17.603318   15.407807   15.000080     -0.20      12.0107
     2    2   C2        16.305435   14.589571   15.000140     -0.14      12.0107
     3    3   C2        14.999995   15.410559   15.000056     -0.15      12.0107
     4    2   C2        13.694567   14.589552   15.000116     -0.14      12.0107
     5    4   H         16.305876   13.928675   15.884717      0.07       1.0079
     6    4   H         16.305892   13.928520   14.115680      0.07       1.0079
     7    5   H         18.478652   14.738186   15.000147      0.07       1.0079
     8    5   H         17.657954   16.049336   14.105796      0.07       1.0079
     9    5   H         17.657938   16.049493   15.894252      0.07       1.0079
    10    6   H         14.999982   16.071498   15.884306      0.07       1.0079
    11    6   H         14.999999   16.071343   14.115691      0.07       1.0079
    12    1   C1        12.396673   15.407770   15.000033     -0.20      12.0107
    13    4   H         13.694135   13.928502   14.115656      0.07       1.0079
    14    4   H         13.694119   13.928657   15.884693      0.07       1.0079
    15    5   H         11.521348   14.738137   15.000083      0.07       1.0079
    16    5   H         12.342027   16.049455   15.894204      0.07       1.0079
    17    5   H         12.342044   16.049299   14.105748      0.07       1.0079



 REQUESTED STRUCTURE DATA

 Crystal Symmetry Information
       Point group of the primitive lattice:                        CUBIC system
                                                                symmorphic group
                                                           no inversion symmetry
       The point group of the crystal is [Hermann-Mauguin] [INDEX= 5]        2/m
                                         [Schoenflies]                       C2h
       Total number of elements in the point group:                            4
       to sum up: (                                            5  1  1  0  4  5)

       List of the rotations:
                                   1   3  26  28


 DISTRIBUTION OF THE MOLECULES

  Process   Number of molecules

        0                     1

      Sum                     1

  Process   Kind   Local molecules (global indices)

        0      1        1


 DISTRIBUTION OF THE PARTICLES

  Process   Number of particles

        0                    17

      Sum                    17

  Process   Kind   Local particles (global indices)

        0      1        1    12
               2        2     4
               3        3
               4        5     6    13    14
               5        7     8     9    15    16    17
               6       10    11
 VIB|NUMBER OF REPLICAS:    1NUMBER OF PROCS:    1NUMBER OF PROCS PER REPLICA:    1
 REPLICA| layout of the replica grid, number of groups                         1
 REPLICA| layout of the replica grid, size of each group                       1
 REPLICA| MPI process to grid (rank,group) correspondence:
  (   0 :    0,   0)
 ROT| Numer of Rotovibrational vectors:     3

 VIB| Vibrational Analysis Info
 VIB| REPLICA Nr.    1- Energy and Forces for particle:    1  coordinate: X + DX
 VIB|                                     Total Energy:              0.012258356
 VIB|    ATOM                            X                Y                Z
 VIB|      C1                     -0.001086531     -0.000041559     -0.000000001           
 VIB|      C2                      0.000474684      0.000248521     -0.000000007           
 VIB|      C2                      0.000041320      0.000010375     -0.000000007           
 VIB|      C2                      0.000000116      0.000000025      0.000000001           
 VIB|      H                       0.000012789      0.000019221     -0.000013733           
 VIB|      H                       0.000012788      0.000019214      0.000013719           
 VIB|      H                       0.000440013     -0.000295180      0.000000030           
 VIB|      H                       0.000050866      0.000020133     -0.000023390           
 VIB|      H                       0.000050863      0.000020132      0.000023384           
 VIB|      H                       0.000001589     -0.000000422     -0.000000566           
 VIB|      H                       0.000001588     -0.000000424      0.000000569           
 VIB|      C1                      0.000000049     -0.000000005     -0.000000008           
 VIB|      H                      -0.000000035     -0.000000026     -0.000000020           
 VIB|      H                      -0.000000034     -0.000000026      0.000000020           
 VIB|      H                      -0.000000019     -0.000000007      0.000000001           
 VIB|      H                      -0.000000024      0.000000016      0.000000028           
 VIB|      H                      -0.000000025      0.000000011     -0.000000020           
 VIB| REPLICA Nr.    1- Energy and Forces for particle:    1  coordinate: Y + DY
 VIB|                                     Total Energy:              0.012254446
 VIB|    ATOM                            X                Y                Z
 VIB|      C1                     -0.000042457     -0.001064107     -0.000000001           
 VIB|      C2                      0.000248919      0.000240538     -0.000000002           
 VIB|      C2                     -0.000010410     -0.000017685     -0.000000005           
 VIB|      C2                      0.000000032     -0.000000057      0.000000001           
 VIB|      H                       0.000029436      0.000026311     -0.000012271           
 VIB|      H                       0.000029440      0.000026309      0.000012256           
 VIB|      H                      -0.000296898      0.000275824     -0.000000022           
 VIB|      H                       0.000021421      0.000256338     -0.000292462           
 VIB|      H                       0.000021418      0.000256441      0.000292502           
 VIB|      H                      -0.000000424      0.000000029      0.000000147           
 VIB|      H                      -0.000000425      0.000000027     -0.000000143           
 VIB|      C1                     -0.000000018     -0.000000044     -0.000000008           
 VIB|      H                      -0.000000023      0.000000013     -0.000000012           
 VIB|      H                      -0.000000023      0.000000014      0.000000011           
 VIB|      H                      -0.000000003      0.000000005      0.000000001           
 VIB|      H                       0.000000008      0.000000025      0.000000020           
 VIB|      H                       0.000000007      0.000000019     -0.000000012           
 VIB| REPLICA Nr.    1- Energy and Forces for particle:    1  coordinate: Z + DZ
 VIB|                                     Total Energy:              0.012255338
 VIB|    ATOM                            X                Y                Z
 VIB|      C1                     -0.000000021     -0.000000824     -0.001025400           
 VIB|      C2                      0.000000047      0.000000052      0.000069251           
 VIB|      C2                      0.000000004      0.000000014     -0.000001294           
 VIB|      C2                     -0.000000004     -0.000000011     -0.000001197           
 VIB|      H                      -0.000027473     -0.000020925      0.000003383           
 VIB|      H                       0.000027471      0.000020907      0.000003383           
 VIB|      H                      -0.000000050      0.000000068      0.000044474           
 VIB|      H                      -0.000025283     -0.000292793      0.000453013           
 VIB|      H                       0.000025320      0.000293505      0.000453369           
 VIB|      H                      -0.000000884     -0.000000356      0.000000488           
 VIB|      H                       0.000000887      0.000000362      0.000000488           
 VIB|      C1                     -0.000000018     -0.000000005     -0.000000047           
 VIB|      H                      -0.000000014     -0.000000009      0.000000016           
 VIB|      H                       0.000000013      0.000000002      0.000000028           
 VIB|      H                       0.000000000     -0.000000004      0.000000010           
 VIB|      H                       0.000000010      0.000000011      0.000000033           
 VIB|      H                      -0.000000005      0.000000007     -0.000000001           
 VIB| REPLICA Nr.    1- Energy and Forces for particle:    2  coordinate: X + DX
 VIB|                                     Total Energy:              0.012257047
 VIB|    ATOM                            X                Y                Z
 VIB|      C1                      0.000475077      0.000249240     -0.000000022           
 VIB|      C2                     -0.001214416     -0.000014208      0.000000011           
 VIB|      C2                      0.000469629     -0.000235481      0.000000018           
 VIB|      C2                      0.000040878     -0.000010339      0.000000002           
 VIB|      H                       0.000058802     -0.000000026      0.000000041           
 VIB|      H                       0.000058802     -0.000000040     -0.000000059           
 VIB|      H                       0.000054976      0.000011865      0.000000000           
 VIB|      H                       0.000013883      0.000018209     -0.000013667           
 VIB|      H                       0.000013880      0.000018211      0.000013668           
 VIB|      H                       0.000012651     -0.000019142     -0.000013392           
 VIB|      H                       0.000012649     -0.000019142      0.000013399           
 VIB|      C1                      0.000000103     -0.000000042     -0.000000008           
 VIB|      H                       0.000001580      0.000000423      0.000000564           
 VIB|      H                       0.000001580      0.000000424     -0.000000565           
 VIB|      H                      -0.000000028     -0.000000003      0.000000001           
 VIB|      H                      -0.000000022      0.000000028      0.000000031           
 VIB|      H                      -0.000000024      0.000000022     -0.000000023           
 VIB| REPLICA Nr.    1- Energy and Forces for particle:    2  coordinate: Y + DY
 VIB|                                     Total Energy:              0.012261473
 VIB|    ATOM                            X                Y                Z
 VIB|      C1                      0.000248845      0.000240520     -0.000000017           
 VIB|      C2                     -0.000013525     -0.001099531      0.000000017           
 VIB|      C2                     -0.000235668      0.000250088     -0.000000024           
 VIB|      C2                      0.000010333     -0.000017539      0.000000003           
 VIB|      H                      -0.000000100      0.000269506     -0.000292075           
 VIB|      H                      -0.000000106      0.000269601      0.000292094           
 VIB|      H                      -0.000007131     -0.000013083      0.000000002           
 VIB|      H                       0.000027666      0.000024471     -0.000010782           
 VIB|      H                       0.000027668      0.000024476      0.000010784           
 VIB|      H                      -0.000029412      0.000025750      0.000012228           
 VIB|      H                      -0.000029408      0.000025742     -0.000012230           
 VIB|      C1                     -0.000000054     -0.000000051     -0.000000008           
 VIB|      H                       0.000000427     -0.000000001      0.000000138           
 VIB|      H                       0.000000427     -0.000000001     -0.000000138           
 VIB|      H                       0.000000001      0.000000010      0.000000001           
 VIB|      H                       0.000000019      0.000000024      0.000000017           
 VIB|      H                       0.000000018      0.000000019     -0.000000010           
 VIB| REPLICA Nr.    1- Energy and Forces for particle:    2  coordinate: Z + DZ
 VIB|                                     Total Energy:              0.012255337
 VIB|    ATOM                            X                Y                Z
 VIB|      C1                     -0.000000078     -0.000000072      0.000069236           
 VIB|      C2                      0.000000008      0.000000782     -0.001028086           
 VIB|      C2                      0.000000084     -0.000000074      0.000071241           
 VIB|      C2                     -0.000000002     -0.000000008     -0.000000673           
 VIB|      H                       0.000000342     -0.000295852      0.000438805           
 VIB|      H                      -0.000000346      0.000295217      0.000438292           
 VIB|      H                       0.000000010     -0.000000011     -0.000000004           
 VIB|      H                      -0.000027392     -0.000019828      0.000002711           
 VIB|      H                       0.000027379      0.000019838      0.000002716           
 VIB|      H                      -0.000026820      0.000021130      0.000002983           
 VIB|      H                       0.000026830     -0.000021123      0.000003001           
 VIB|      C1                     -0.000000018     -0.000000005     -0.000001205           
 VIB|      H                       0.000000887     -0.000000362      0.000000457           
 VIB|      H                      -0.000000888      0.000000355      0.000000469           
 VIB|      H                       0.000000000     -0.000000004      0.000000015           
 VIB|      H                       0.000000013      0.000000008      0.000000037           
 VIB|      H                      -0.000000008      0.000000010      0.000000003           
 VIB| REPLICA Nr.    1- Energy and Forces for particle:    3  coordinate: X + DX
 VIB|                                     Total Energy:              0.012255308
 VIB|    ATOM                            X                Y                Z
 VIB|      C1                      0.000041355     -0.000010407     -0.000000002           
 VIB|      C2                      0.000470026     -0.000235809      0.000000035           
 VIB|      C2                     -0.001195641      0.000000673     -0.000000008           
 VIB|      C2                      0.000469619      0.000235356     -0.000000016           
 VIB|      H                       0.000012645     -0.000019134      0.000013398           
 VIB|      H                       0.000012645     -0.000019145     -0.000013406           
 VIB|      H                       0.000000049     -0.000000015      0.000000001           
 VIB|      H                       0.000001300      0.000000334     -0.000000470           
 VIB|      H                       0.000001297      0.000000334      0.000000475           
 VIB|      H                       0.000058734     -0.000000098     -0.000000094           
 VIB|      H                       0.000058733     -0.000000095      0.000000090           
 VIB|      C1                      0.000041303      0.000010408     -0.000000008           
 VIB|      H                       0.000012648      0.000019121      0.000013380           
 VIB|      H                       0.000012649      0.000019120     -0.000013384           
 VIB|      H                       0.000000035     -0.000000003      0.000000001           
 VIB|      H                       0.000001302     -0.000000318     -0.000000440           
 VIB|      H                       0.000001301     -0.000000323      0.000000448           
 VIB| REPLICA Nr.    1- Energy and Forces for particle:    3  coordinate: Y + DY
 VIB|                                     Total Energy:              0.012247442
 VIB|    ATOM                            X                Y                Z
 VIB|      C1                      0.000010362     -0.000017687     -0.000000002           
 VIB|      C2                     -0.000235625      0.000250093     -0.000000007           
 VIB|      C2                     -0.000000001     -0.001107214      0.000000000           
 VIB|      C2                      0.000235627      0.000250096     -0.000000012           
 VIB|      H                      -0.000029359      0.000025721     -0.000012200           
 VIB|      H                      -0.000029364      0.000025718      0.000012185           
 VIB|      H                       0.000000013      0.000000016      0.000000001           
 VIB|      H                       0.000000327      0.000000012     -0.000000119           
 VIB|      H                       0.000000325      0.000000012      0.000000124           
 VIB|      H                      -0.000000002      0.000269770      0.000292900           
 VIB|      H                       0.000000002      0.000269664     -0.000292867           
 VIB|      C1                     -0.000010376     -0.000017704     -0.000000006           
 VIB|      H                       0.000029364      0.000025724      0.000012188           
 VIB|      H                       0.000029359      0.000025718     -0.000012192           
 VIB|      H                       0.000000001      0.000000025      0.000000001           
 VIB|      H                      -0.000000327      0.000000020      0.000000132           
 VIB|      H                      -0.000000328      0.000000015     -0.000000124           
 VIB| REPLICA Nr.    1- Energy and Forces for particle:    3  coordinate: Z + DZ
 VIB|                                     Total Energy:              0.012255339
 VIB|    ATOM                            X                Y                Z
 VIB|      C1                     -0.000000000      0.000000011     -0.000001291           
 VIB|      C2                     -0.000000033      0.000000045      0.000071259           
 VIB|      C2                     -0.000000002     -0.000000762     -0.001029819           
 VIB|      C2                      0.000000039      0.000000045      0.000071249           
 VIB|      H                       0.000026820     -0.000021107      0.000002987           
 VIB|      H                      -0.000026814      0.000021089      0.000002985           
 VIB|      H                       0.000000014     -0.000000013     -0.000000660           
 VIB|      H                      -0.000000797      0.000000421      0.000000434           
 VIB|      H                       0.000000789     -0.000000412      0.000000455           
 VIB|      H                      -0.000000003      0.000296256      0.000438889           
 VIB|      H                      -0.000000000     -0.000295564      0.000438591           
 VIB|      C1                     -0.000000014     -0.000000005     -0.000001295           
 VIB|      H                       0.000026814      0.000021094      0.000002989           
 VIB|      H                      -0.000026818     -0.000021111      0.000002994           
 VIB|      H                       0.000000000     -0.000000004     -0.000000660           
 VIB|      H                      -0.000000791     -0.000000405      0.000000463           
 VIB|      H                       0.000000796      0.000000423      0.000000429           
 VIB| REPLICA Nr.    1- Energy and Forces for particle:    4  coordinate: X + DX
 VIB|                                     Total Energy:              0.012253573
 VIB|    ATOM                            X                Y                Z
 VIB|      C1                      0.000000124      0.000000048     -0.000000004           
 VIB|      C2                      0.000040917      0.000010328      0.000000011           
 VIB|      C2                      0.000470015      0.000235949     -0.000000023           
 VIB|      C2                     -0.001214408      0.000012846     -0.000000002           
 VIB|      H                       0.000001585     -0.000000428      0.000000571           
 VIB|      H                       0.000001585     -0.000000436     -0.000000582           
 VIB|      H                      -0.000000014     -0.000000015      0.000000001           
 VIB|      H                      -0.000000028     -0.000000012      0.000000002           
 VIB|      H                      -0.000000030     -0.000000012      0.000000003           
 VIB|      H                       0.000012644      0.000019161      0.000013405           
 VIB|      H                       0.000012643      0.000019156     -0.000013405           
 VIB|      C1                      0.000474670     -0.000248775      0.000000018           
 VIB|      H                       0.000058801      0.000000215      0.000000211           
 VIB|      H                       0.000058801      0.000000221     -0.000000218           
 VIB|      H                       0.000054911     -0.000011872      0.000000003           
 VIB|      H                       0.000013893     -0.000018185     -0.000013625           
 VIB|      H                       0.000013891     -0.000018188      0.000013636           
 VIB| REPLICA Nr.    1- Energy and Forces for particle:    4  coordinate: Y + DY
 VIB|                                     Total Energy:              0.012261473
 VIB|    ATOM                            X                Y                Z
 VIB|      C1                      0.000000040     -0.000000034     -0.000000004           
 VIB|      C2                     -0.000010333     -0.000017535      0.000000013           
 VIB|      C2                      0.000235670      0.000250095     -0.000000020           
 VIB|      C2                      0.000013523     -0.001099535      0.000000008           
 VIB|      H                      -0.000000426      0.000000002     -0.000000146           
 VIB|      H                      -0.000000427     -0.000000006      0.000000135           
 VIB|      H                       0.000000013      0.000000000      0.000000001           
 VIB|      H                      -0.000000019      0.000000017     -0.000000005           
 VIB|      H                      -0.000000021      0.000000017      0.000000009           
 VIB|      H                       0.000029416      0.000025751      0.000012229           
 VIB|      H                       0.000029411      0.000025742     -0.000012229           
 VIB|      C1                     -0.000248856      0.000240496     -0.000000025           
 VIB|      H                       0.000000098      0.000269606      0.000292097           
 VIB|      H                       0.000000103      0.000269503     -0.000292068           
 VIB|      H                       0.000007146     -0.000013074      0.000000002           
 VIB|      H                      -0.000027670      0.000024483      0.000010791           
 VIB|      H                      -0.000027667      0.000024472     -0.000010788           
 VIB| REPLICA Nr.    1- Energy and Forces for particle:    4  coordinate: Z + DZ
 VIB|                                     Total Energy:              0.012255337
 VIB|    ATOM                            X                Y                Z
 VIB|      C1                      0.000000003      0.000000011     -0.000001201           
 VIB|      C2                      0.000000002     -0.000000004     -0.000000663           
 VIB|      C2                     -0.000000077     -0.000000070      0.000071241           
 VIB|      C2                     -0.000000012      0.000000779     -0.001028096           
 VIB|      H                       0.000000889      0.000000358      0.000000462           
 VIB|      H                      -0.000000887     -0.000000366      0.000000454           
 VIB|      H                       0.000000014     -0.000000013      0.000000015           
 VIB|      H                       0.000000007      0.000000008      0.000000008           
 VIB|      H                      -0.000000015      0.000000000      0.000000029           
 VIB|      H                       0.000026824      0.000021131      0.000002984           
 VIB|      H                      -0.000026827     -0.000021123      0.000003001           
 VIB|      C1                      0.000000071     -0.000000094      0.000069232           
 VIB|      H                       0.000000335      0.000295222      0.000438295           
 VIB|      H                      -0.000000344     -0.000295855      0.000438812           
 VIB|      H                       0.000000005     -0.000000003     -0.000000003           
 VIB|      H                      -0.000027381      0.000019845      0.000002723           
 VIB|      H                       0.000027392     -0.000019825      0.000002707           
 VIB| REPLICA Nr.    1- Energy and Forces for particle:    5  coordinate: X + DX
 VIB|                                     Total Energy:              0.012254787
 VIB|    ATOM                            X                Y                Z
 VIB|      C1                      0.000012785      0.000029467     -0.000027480           
 VIB|      C2                      0.000058805     -0.000000200      0.000000455           
 VIB|      C2                      0.000012649     -0.000029348      0.000026811           
 VIB|      C2                      0.000001576     -0.000000438      0.000000888           
 VIB|      H                      -0.000085224      0.000000195     -0.000000474           
 VIB|      H                      -0.000001427      0.000000002     -0.000000009           
 VIB|      H                       0.000000329      0.000000133     -0.000000374           
 VIB|      H                      -0.000000094      0.000000169      0.000000058           
 VIB|      H                       0.000000156      0.000000047      0.000000123           
 VIB|      H                       0.000000140     -0.000000061     -0.000000099           
 VIB|      H                       0.000000030      0.000000030      0.000000068           
 VIB|      C1                     -0.000000052      0.000000017     -0.000000021           
 VIB|      H                       0.000000034     -0.000000004      0.000000031           
 VIB|      H                       0.000000261     -0.000000003      0.000000006           
 VIB|      H                       0.000000010     -0.000000007      0.000000004           
 VIB|      H                       0.000000013      0.000000002      0.000000021           
 VIB|      H                       0.000000008     -0.000000000     -0.000000008           
 VIB| REPLICA Nr.    1- Energy and Forces for particle:    5  coordinate: Y + DY
 VIB|                                     Total Energy:              0.012256100
 VIB|    ATOM                            X                Y                Z
 VIB|      C1                      0.000019238      0.000026324     -0.000020936           
 VIB|      C2                     -0.000000121      0.000269469     -0.000295697           
 VIB|      C2                     -0.000019138      0.000025735     -0.000021121           
 VIB|      C2                     -0.000000431     -0.000000009      0.000000359           
 VIB|      H                       0.000000125     -0.000307553      0.000327261           
 VIB|      H                       0.000000010     -0.000014777      0.000010327           
[...]
     9  H            -0.16 -0.10  0.05    -0.05 -0.02 -0.01    -0.03 -0.03  0.01
    10  H            -0.33 -0.00 -0.00    -0.00  0.06  0.02     0.69  0.00  0.00
    11  H            -0.33 -0.00 -0.00     0.00 -0.06  0.02    -0.69 -0.00 -0.00
    12  C            -0.02  0.03 -0.00     0.00 -0.00 -0.03     0.00  0.00  0.02
    13  H             0.39  0.01 -0.01    -0.49 -0.01  0.00     0.09 -0.05 -0.01
    14  H             0.39  0.01  0.01     0.49  0.01  0.00    -0.09  0.05 -0.01
    15  H            -0.08  0.11 -0.00     0.00 -0.00 -0.04     0.00 -0.00 -0.03
    16  H            -0.16  0.10 -0.05     0.05 -0.02 -0.01    -0.03  0.03 -0.01
    17  H            -0.16  0.10  0.05    -0.05  0.02 -0.01     0.03 -0.03 -0.01


 VIB|                        22                   23                   24
 VIB|Frequency (cm^-1)  1527.220869          1554.895642          1574.963368
 VIB|Intensities           0.000000             0.000000             0.000000
 VIB|Red.Masses (a.u.)     1.171615             1.238890             1.485820
 VIB|Frc consts (a.u.)     0.016318             0.018540             0.023406
  ATOM  EL             X     Y     Z        X     Y     Z        X     Y     Z  
     1  C            -0.02 -0.05  0.00     0.02  0.03 -0.00    -0.00 -0.02  0.00
     2  C             0.01  0.07 -0.00    -0.01 -0.09  0.00    -0.02  0.10 -0.00
     3  C             0.00 -0.02  0.00    -0.05 -0.00 -0.00     0.00 -0.15  0.00
     4  C            -0.01  0.07 -0.00    -0.01  0.09 -0.00     0.02  0.10 -0.00
     5  H             0.34  0.13  0.05    -0.00 -0.23 -0.10    -0.31  0.20  0.08
     6  H             0.34  0.13 -0.05    -0.00 -0.23  0.10    -0.31  0.20 -0.08
     7  H            -0.11 -0.15  0.00     0.12  0.15 -0.00    -0.02 -0.03  0.00
     8  H            -0.27 -0.12 -0.06     0.25  0.08  0.04    -0.11  0.02  0.02
     9  H            -0.27 -0.12  0.06     0.25  0.08 -0.04    -0.11  0.02 -0.02
    10  H            -0.00  0.03 -0.03    -0.43 -0.00 -0.00     0.00 -0.38  0.16
    11  H             0.00  0.03  0.03    -0.43 -0.00 -0.00     0.00 -0.38 -0.16
    12  C             0.02 -0.05  0.00     0.02 -0.03  0.00     0.00 -0.02  0.00
    13  H            -0.34  0.13 -0.05    -0.00  0.23 -0.10     0.31  0.20 -0.08
    14  H            -0.34  0.13  0.05    -0.00  0.23  0.10     0.31  0.20  0.08
    15  H             0.11 -0.15  0.00     0.12 -0.15  0.00     0.02 -0.03  0.00
    16  H             0.27 -0.12  0.06     0.25 -0.08  0.04     0.11  0.02 -0.02
    17  H             0.27 -0.12 -0.06     0.25 -0.08 -0.04     0.11  0.02  0.02


 VIB|                        25                   26                   27
 VIB|Frequency (cm^-1)  1664.772539          1726.540705          1730.035399
 VIB|Intensities           0.000000             0.000000             0.000000
 VIB|Red.Masses (a.u.)     1.272789             1.270635             1.051238
 VIB|Frc consts (a.u.)     0.025029             0.028907             0.024110
  ATOM  EL             X     Y     Z        X     Y     Z        X     Y     Z  
     1  C             0.00 -0.01  0.00     0.04  0.07 -0.00    -0.02  0.03 -0.00
     2  C            -0.07 -0.01  0.00     0.06 -0.03  0.00     0.00 -0.02  0.00
     3  C            -0.12 -0.00 -0.00    -0.00  0.02 -0.00    -0.00  0.00 -0.00
     4  C            -0.07  0.01 -0.00    -0.06 -0.03  0.00     0.00  0.02 -0.00
     5  H             0.31 -0.00  0.00    -0.21 -0.04 -0.01    -0.03  0.12  0.09
     6  H             0.31 -0.00 -0.00    -0.21 -0.04  0.01    -0.03  0.12 -0.09
     7  H             0.15  0.17 -0.00    -0.09 -0.10  0.00     0.16  0.23 -0.00
     8  H             0.16  0.04  0.04    -0.17 -0.30 -0.26     0.09 -0.34 -0.25
     9  H             0.16  0.04 -0.04    -0.17 -0.30  0.26     0.09 -0.34  0.25
    10  H             0.43  0.00  0.00    -0.00  0.09 -0.05    -0.04  0.00 -0.00
    11  H             0.43  0.00  0.00    -0.00  0.09  0.05    -0.04  0.00  0.00
    12  C             0.00  0.01 -0.00    -0.04  0.07 -0.00    -0.02 -0.03  0.00
    13  H             0.31  0.00  0.00     0.21 -0.04  0.01    -0.03 -0.12  0.09
    14  H             0.31  0.00 -0.00     0.21 -0.04 -0.01    -0.03 -0.12 -0.09
    15  H             0.15 -0.17  0.00     0.09 -0.10  0.00     0.16 -0.23  0.00
    16  H             0.16 -0.04  0.04     0.17 -0.30  0.26     0.09  0.34 -0.25
    17  H             0.16 -0.04 -0.04     0.17 -0.30 -0.26     0.09  0.34  0.25


 VIB|                        28                   29                   30
 VIB|Frequency (cm^-1)  1730.370082          1740.966064          1740.971286
 VIB|Intensities           0.000000             0.000000             0.000000
 VIB|Red.Masses (a.u.)     1.081269             1.046501             1.046077
 VIB|Frc consts (a.u.)     0.024818             0.024613             0.024604
  ATOM  EL             X     Y     Z        X     Y     Z        X     Y     Z  
     1  C            -0.05 -0.00 -0.00     0.00 -0.00 -0.04    -0.00  0.00  0.04
     2  C            -0.02 -0.01  0.00     0.00 -0.00 -0.01    -0.00  0.00  0.01
     3  C            -0.00  0.00 -0.00    -0.00  0.00  0.00    -0.00 -0.00  0.00
     4  C             0.02 -0.01  0.00     0.00 -0.00 -0.01     0.00 -0.00 -0.01
     5  H             0.07  0.18  0.13    -0.04  0.00 -0.01     0.03 -0.00  0.01
     6  H             0.07  0.18 -0.13     0.04 -0.00 -0.01    -0.03  0.00  0.01
     7  H             0.22  0.31 -0.00    -0.00  0.00  0.50     0.00 -0.00 -0.50
     8  H             0.20 -0.24 -0.15    -0.33  0.11  0.04     0.33 -0.11 -0.04
     9  H             0.20 -0.24  0.15     0.33 -0.11  0.04    -0.33  0.11 -0.04
    10  H            -0.00 -0.07  0.05    -0.00  0.01  0.00     0.02  0.00  0.00
    11  H             0.00 -0.07 -0.05     0.00 -0.01  0.00    -0.02 -0.00 -0.00
    12  C             0.05 -0.00  0.00     0.00 -0.00 -0.04     0.00 -0.00 -0.04
    13  H            -0.07  0.18 -0.13    -0.04 -0.00 -0.01    -0.03 -0.00 -0.01
    14  H            -0.07  0.18  0.13     0.04  0.00 -0.01     0.03  0.00 -0.01
    15  H            -0.22  0.31 -0.00    -0.00  0.00  0.50    -0.00  0.00  0.50
    16  H            -0.20 -0.24  0.15    -0.33 -0.11  0.04    -0.33 -0.11  0.04
    17  H            -0.20 -0.24 -0.15     0.33  0.11  0.04     0.33  0.11  0.04


 VIB|                        31                   32                   33
 VIB|Frequency (cm^-1)  1758.656380          1767.704604          1790.726516
 VIB|Intensities           0.000000             0.000000             0.000000
 VIB|Red.Masses (a.u.)     1.189750             1.110948             1.647226
 VIB|Frc consts (a.u.)     0.029137             0.027772             0.043365
  ATOM  EL             X     Y     Z        X     Y     Z        X     Y     Z  
     1  C             0.05  0.05 -0.00     0.00  0.01 -0.00     0.04  0.02 -0.00
     2  C            -0.01  0.03 -0.00    -0.02  0.04 -0.00     0.03 -0.12  0.00
     3  C            -0.06 -0.00 -0.00    -0.00  0.08 -0.00    -0.00  0.15 -0.00
     4  C            -0.01 -0.03  0.00     0.02  0.04 -0.00    -0.03 -0.12  0.00
     5  H            -0.03 -0.31 -0.24     0.10 -0.23 -0.18     0.04  0.24  0.24
     6  H            -0.03 -0.31  0.24     0.10 -0.23  0.18     0.04  0.24 -0.24
     7  H            -0.05 -0.08  0.00     0.03  0.04 -0.00    -0.12 -0.17  0.00
     8  H            -0.15 -0.15 -0.14    -0.01 -0.08 -0.06    -0.05  0.10  0.05
     9  H            -0.15 -0.15  0.14    -0.01 -0.08  0.06    -0.05  0.10 -0.05
    10  H             0.19  0.00  0.00    -0.00 -0.41  0.33    -0.00 -0.28  0.29
    11  H             0.19  0.00  0.00     0.00 -0.41 -0.33     0.00 -0.28 -0.29
    12  C             0.05 -0.05  0.00    -0.00  0.01 -0.00    -0.04  0.02 -0.00
    13  H            -0.03  0.31 -0.24    -0.10 -0.23  0.18    -0.04  0.24 -0.24
    14  H            -0.03  0.31  0.24    -0.10 -0.23 -0.18    -0.04  0.24  0.24
    15  H            -0.05  0.08 -0.00    -0.03  0.04 -0.00     0.12 -0.17  0.00
    16  H            -0.15  0.15 -0.14     0.01 -0.08  0.06     0.05  0.10 -0.05
    17  H            -0.15  0.15  0.14     0.01 -0.08 -0.06     0.05  0.10  0.05


 VIB|                        34                   35                   36
 VIB|Frequency (cm^-1)  1825.670669          1980.257356          2107.134204
 VIB|Intensities           0.000000             0.000000             0.000000
 VIB|Red.Masses (a.u.)     2.791642             8.084172             8.976175
 VIB|Frc consts (a.u.)     0.079400             0.318269             0.453036
  ATOM  EL             X     Y     Z        X     Y     Z        X     Y     Z  
     1  C             0.17  0.10 -0.00    -0.28 -0.16  0.00     0.16  0.09 -0.00
     2  C            -0.04 -0.17  0.00     0.45  0.08 -0.00    -0.43  0.04 -0.00
     3  C            -0.16 -0.00 -0.00    -0.00  0.15 -0.00     0.53  0.00  0.00
     4  C            -0.04  0.17 -0.00    -0.45  0.08 -0.00    -0.43 -0.04 -0.00
     5  H            -0.02  0.22  0.25    -0.20 -0.02 -0.06     0.18  0.00 -0.02
     6  H            -0.02  0.22 -0.25    -0.20 -0.02  0.06     0.18  0.00  0.02
     7  H            -0.17 -0.30  0.00    -0.06  0.08 -0.00     0.09  0.04 -0.00
     8  H            -0.19  0.03 -0.05     0.12  0.02  0.12    -0.04 -0.01 -0.07
     9  H            -0.19  0.03  0.05     0.12  0.02 -0.12    -0.04 -0.01  0.07
    10  H             0.00 -0.00  0.00    -0.00 -0.04  0.11    -0.22 -0.00 -0.00
    11  H             0.00  0.00  0.00     0.00 -0.04 -0.11    -0.22 -0.00 -0.00
    12  C             0.17 -0.10  0.00     0.28 -0.16  0.00     0.16 -0.09  0.00
    13  H            -0.02 -0.22  0.25     0.20 -0.02  0.06     0.18 -0.00 -0.02
    14  H            -0.02 -0.22 -0.25     0.20 -0.02 -0.06     0.18 -0.00  0.02
    15  H            -0.17  0.30 -0.00     0.06  0.08 -0.00     0.09 -0.04  0.00
    16  H            -0.19 -0.03 -0.05    -0.12  0.02 -0.12    -0.04  0.01 -0.07
    17  H            -0.19 -0.03  0.05    -0.12  0.02  0.12    -0.04  0.01  0.07


 VIB|                        37                   38                   39
 VIB|Frequency (cm^-1)  4515.156994          4526.218064          4540.443901
 VIB|Intensities           0.000000             0.000000             0.000000
 VIB|Red.Masses (a.u.)     1.092037             1.095386             1.099580
 VIB|Frc consts (a.u.)     1.161986             1.177013             1.196444
  ATOM  EL             X     Y     Z        X     Y     Z        X     Y     Z  
     1  C             0.00 -0.00 -0.01    -0.00  0.00  0.01     0.00 -0.00 -0.01
     2  C            -0.00  0.00  0.05     0.00 -0.00 -0.06    -0.00  0.00  0.04
     3  C             0.00 -0.00 -0.06    -0.00 -0.00 -0.00    -0.00  0.00  0.07
     4  C            -0.00  0.00  0.05    -0.00  0.00  0.06    -0.00  0.00  0.04
     5  H             0.00  0.22 -0.29     0.00 -0.30  0.39    -0.00  0.20 -0.26
     6  H            -0.00 -0.22 -0.29    -0.00  0.30  0.39     0.00 -0.20 -0.26
     7  H             0.00 -0.00 -0.00    -0.00  0.00  0.00     0.00 -0.00 -0.00
     8  H            -0.00 -0.03  0.04     0.00  0.05 -0.07    -0.00 -0.05  0.06
     9  H             0.00  0.03  0.04    -0.00 -0.05 -0.07     0.00  0.05  0.06
    10  H            -0.00  0.29  0.37    -0.00  0.00  0.00     0.00 -0.32 -0.41
    11  H            -0.00 -0.29  0.37     0.00 -0.00  0.00     0.00  0.32 -0.41
    12  C             0.00 -0.00 -0.01     0.00 -0.00 -0.01     0.00 -0.00 -0.01
    13  H             0.00 -0.22 -0.29    -0.00 -0.30 -0.39    -0.00 -0.20 -0.26
    14  H            -0.00  0.22 -0.29     0.00  0.30 -0.39     0.00  0.20 -0.26
    15  H             0.00 -0.00 -0.00     0.00 -0.00 -0.00     0.00 -0.00 -0.00
    16  H            -0.00  0.03  0.04    -0.00  0.05  0.07    -0.00  0.05  0.06
    17  H             0.00 -0.03  0.04     0.00 -0.05  0.07     0.00 -0.05  0.06


 VIB|                        40                   41                   42
 VIB|Frequency (cm^-1)  4578.619346          4578.624300          4581.926079
 VIB|Intensities           0.000000             0.000000             0.000000
 VIB|Red.Masses (a.u.)     1.094456             1.094446             1.095846
 VIB|Frc consts (a.u.)     1.231427             1.231421             1.236556
  ATOM  EL             X     Y     Z        X     Y     Z        X     Y     Z  
     1  C             0.03 -0.05  0.00    -0.03  0.05 -0.00     0.00 -0.00 -0.06
     2  C             0.00  0.00 -0.00    -0.00 -0.00  0.00     0.00 -0.00 -0.01
     3  C            -0.00 -0.00 -0.00     0.00 -0.00 -0.00    -0.00 -0.00 -0.00
     4  C             0.00 -0.00  0.00     0.00 -0.00  0.00    -0.00  0.00  0.01
     5  H             0.00 -0.02  0.03    -0.00  0.02 -0.03    -0.00 -0.05  0.06
     6  H             0.00 -0.02 -0.03    -0.00  0.02  0.03     0.00  0.05  0.06
     7  H            -0.46  0.34 -0.00     0.46 -0.34  0.00    -0.00 -0.00 -0.03
     8  H             0.03  0.15 -0.24    -0.03 -0.15  0.24    -0.02 -0.30  0.39
     9  H             0.03  0.15  0.24    -0.03 -0.15 -0.24     0.02  0.30  0.39
    10  H            -0.00  0.00  0.00     0.00  0.00  0.00    -0.00  0.00  0.00
    11  H            -0.00  0.00 -0.00     0.00  0.00 -0.00     0.00 -0.00  0.00
    12  C             0.03  0.05 -0.00     0.03  0.05 -0.00    -0.00  0.00  0.06
    13  H             0.00  0.02  0.03     0.00  0.02  0.03     0.00 -0.05 -0.06
    14  H             0.00  0.02 -0.03     0.00  0.02 -0.03    -0.00  0.05 -0.06
    15  H            -0.46 -0.34  0.00    -0.46 -0.34  0.00    -0.00  0.00  0.03
    16  H             0.03 -0.15 -0.24     0.03 -0.15 -0.24     0.02 -0.30 -0.39
    17  H             0.03 -0.15  0.25     0.03 -0.15  0.24    -0.02  0.30 -0.39


 VIB|                        43                   44                   45
 VIB|Frequency (cm^-1)  4582.125771          4646.530637          4657.432936
 VIB|Intensities           0.000000             0.000000             0.000000
 VIB|Red.Masses (a.u.)     1.096016             1.048398             1.051801
 VIB|Frc consts (a.u.)     1.236964             1.251163             1.267045
  ATOM  EL             X     Y     Z        X     Y     Z        X     Y     Z  
     1  C             0.00 -0.00 -0.06    -0.00  0.00 -0.00    -0.00  0.00 -0.00
     2  C             0.00 -0.00 -0.01     0.00  0.03 -0.00    -0.00  0.04 -0.00
     3  C             0.00 -0.00 -0.00     0.00 -0.04  0.00    -0.00  0.00 -0.00
     4  C             0.00 -0.00 -0.01    -0.00  0.03 -0.00    -0.00 -0.04  0.00
     5  H            -0.00 -0.06  0.07    -0.00 -0.20  0.30     0.00 -0.28  0.41
     6  H             0.00  0.06  0.07    -0.00 -0.20 -0.30     0.00 -0.28 -0.41
     7  H            -0.00 -0.00 -0.03     0.04 -0.03  0.00     0.05 -0.04  0.00
     8  H            -0.02 -0.30  0.39    -0.00  0.00 -0.01    -0.00  0.01 -0.01
     9  H             0.02  0.30  0.39    -0.00  0.00  0.01    -0.00  0.01  0.01
    10  H            -0.00  0.02  0.03    -0.00  0.27  0.40     0.00 -0.00 -0.00
    11  H            -0.00 -0.02  0.03     0.00  0.27 -0.40     0.00 -0.00  0.00
    12  C             0.00 -0.00 -0.06     0.00  0.00 -0.00    -0.00 -0.00  0.00
    13  H            -0.00  0.06  0.07     0.00 -0.20 -0.30     0.00  0.28  0.41
    14  H             0.00 -0.06  0.07     0.00 -0.20  0.30     0.00  0.28 -0.41
    15  H             0.00 -0.00 -0.03    -0.04 -0.03  0.00     0.05  0.04 -0.00
    16  H            -0.02  0.30  0.39     0.00  0.00  0.01    -0.00 -0.01 -0.01
    17  H             0.02 -0.30  0.39     0.00  0.00 -0.01    -0.00 -0.01  0.01


 VIB|                        46                   47                   48
 VIB|Frequency (cm^-1)  4671.093295          4751.240132          4751.291450
 VIB|Intensities           0.000000             0.000000             0.000000
 VIB|Red.Masses (a.u.)     1.055840             1.029508             1.029532
 VIB|Frc consts (a.u.)     1.286900             1.343167             1.343256
  ATOM  EL             X     Y     Z        X     Y     Z        X     Y     Z  
     1  C            -0.00  0.00 -0.00     0.03  0.02 -0.00    -0.03 -0.02  0.00
     2  C            -0.00  0.03 -0.00     0.00  0.00 -0.00    -0.00 -0.00  0.00
     3  C            -0.00  0.05 -0.00    -0.00 -0.00 -0.00     0.00 -0.00  0.00
     4  C             0.00  0.03 -0.00     0.00 -0.00  0.00     0.00 -0.00  0.00
     5  H             0.00 -0.19  0.28    -0.00 -0.02  0.03     0.00  0.02 -0.03
     6  H             0.00 -0.19 -0.28    -0.00 -0.02 -0.03     0.00  0.02  0.03
     7  H             0.04 -0.03  0.00    -0.31  0.26 -0.00     0.31 -0.26  0.00
     8  H            -0.00  0.01 -0.01    -0.01 -0.23  0.34     0.01  0.23 -0.34
     9  H            -0.00  0.01  0.01    -0.01 -0.23 -0.34     0.01  0.23  0.34
    10  H             0.00 -0.29 -0.42     0.00  0.00  0.00    -0.00  0.00  0.01
    11  H            -0.00 -0.29  0.42     0.00  0.00 -0.00     0.00  0.00 -0.01
    12  C             0.00  0.00 -0.00     0.03 -0.02  0.00     0.03 -0.02  0.00
    13  H            -0.00 -0.19 -0.28    -0.00  0.02  0.03    -0.00  0.02  0.03
    14  H            -0.00 -0.19  0.28    -0.00  0.02 -0.03    -0.00  0.02 -0.03
    15  H            -0.04 -0.03  0.00    -0.31 -0.26  0.00    -0.31 -0.26  0.00
    16  H             0.00  0.01  0.01    -0.01  0.23  0.34    -0.01  0.23  0.34
    17  H             0.00  0.01 -0.01    -0.01  0.23 -0.34    -0.01  0.23 -0.34



 -------------------------------------------------------------------------------
 -                                                                             -
 -                           R E F E R E N C E S                               -
 -                                                                             -
 -------------------------------------------------------------------------------
 
 CP2K version 2.0.0 (Development Version), the CP2K developers group (2008).
 CP2K is freely available from http://cp2k.berlios.de/ .

 Frigo, M; Johnson, SG. 
 PROCEEDINGS OF THE IEEE, 93 (2), 216-231 (2005). 
 The design and implementation of FFTW3.
 http://dx.doi.org/10.1109/JPROC.2004.840301


 -------------------------------------------------------------------------------
 -                                                                             -
 -                                T I M I N G                                  -
 -                                                                             -
 -------------------------------------------------------------------------------
 SUBROUTINE                    CALLS  ASD   CPU TIME T  PERFORMANCE ELAPSED TIME
 CP2K                              1  1.0       1.42 I       ---            1.60
 vb_anal                           1  2.0       0.84 I       ---            1.01
 create_force_env                  1  3.0       0.67 I       ---            0.69
 fist_init                         1  3.0       0.58 I       ---            0.58
 fist_create_force_env             1  2.0       0.58 I       ---            0.58
 force_field_control               1  4.0       0.58 I       ---            0.57
 force_field_pack                  1  5.0       0.57 I       ---            0.57
 force_field_pack_ppse             1  6.0       0.38 I       ---            0.39
 get_nonbond_storage               2  7.0       0.32 I       ---            0.32
 spline_nonbond_control            2  7.0       0.25 I       ---            0.25
 force_field_pack_sbe              1  6.0       0.18 I       ---            0.18
 -------------------------------------------------------------------------------

  **** **** ******  **  PROGRAM ENDED AT                     20081119 120407.331
 ***** ** ***  *** **   PROGRAM RAN ON                                  molmod22
 **    ****   ******    PROGRAM RAN BY                                      toon
 ***** **    ** ** **   PROGRAM PROCESS ID                                  8361
  **** **  *******  **  PROGRAM STARTED IN /home/toon/unief/doctoraat/code/work/
                                           tamkin/apps/001_cyclopentane/freq
