no title                                                                
Freq      UB3LYP                                                      6-31G(d)            
Number of atoms                            I                7
Charge                                     I                0
Multiplicity                               I                2
Number of electrons                        I               17
Number of alpha electrons                  I                9
Number of beta electrons                   I                8
Number of basis functions                  I               40
Number of independant functions            I               40
Number of point charges in /Mol/           I                0
Number of translation vectors              I                0
Info1-9                                    I   N=           9
          19          16           0           0           0         100
           6          18        -502
Num ILSW                                   I              100
ILSW                                       I   N=         100
           1           1           0           0           2           0
           0           0           0           0         402      200000
           5           0           0           0           0           0
           0      800000           0           0           1           0
           1           0           0           0     1000000           0
           0           0      100000           0          -1           0
           0           0           0           0           0           0
           0           0           0           1           0           0
           0           0           1      720000      810000           0
           0           0           0           0           0           0
           0           0           0           0           0           0
           0           0           0           0           0           0
           0           0           0           0           0           0
           0           0           0           0           0           0
           0           0           0           0           0           0
           0           0           0           0           0           0
           0           0           0           0
Number of contracted shells                I               18
Highest angular momentum                   I                2
Largest degree of contraction              I                6
Number of primitive shells                 I               42
Pure/Cartesian d shells                    I                1
Pure/Cartesian f shells                    I                0
Virial Ratio                               R      2.010394165877214E+00
SCF Energy                                 R     -7.915786826339025E+01
Total Energy                               R     -7.915786826339025E+01
S**2                                       R      7.539210665166083E-01
S**2 after annihilation                    R      7.500098491971375E-01
RMS Force                                  R      1.697042032891481E-07
RMS Density                                R      5.598909361923565E-09
Atomic numbers                             I   N=           7
           6           6           1           1           1           1
           1
Nuclear charges                            R   N=           7
  6.00000000E+00  6.00000000E+00  1.00000000E+00  1.00000000E+00  1.00000000E+00
  1.00000000E+00  1.00000000E+00
Current cartesian coordinates              R   N=          21
  1.31194393E+00 -4.26521490E-17 -1.45733874E-03 -1.50260153E+00  4.94814810E-17
 -4.37941290E-02  2.09633138E+00 -1.67740407E+00 -9.33366370E-01  2.09633277E+00
  1.67741361E+00 -9.33350756E-01  2.06936287E+00 -1.13291978E-05  1.94488379E+00
 -2.55904170E+00  1.75263540E+00  9.66724358E-02 -2.55903969E+00 -1.75263584E+00
  9.66697027E-02
Int Atom Types                             I   N=           7
           0           0           0           0           0           0
           0
Force Field                                I                0
MM charges                                 R   N=           7
  0.00000000E+00  0.00000000E+00  0.00000000E+00  0.00000000E+00  0.00000000E+00
  0.00000000E+00  0.00000000E+00
Integer atomic weights                     I   N=           7
          12          12           1           1           1           1
           1
Real atomic weights                        R   N=           7
  1.20000000E+01  1.20000000E+01  1.00782504E+00  1.00782504E+00  1.00782504E+00
  1.00782504E+00  1.00782504E+00
Atom residue info                          I   N=           7
           0           0           0           0           0           0
           0
Atom fragment info                         I   N=           7
           0           0           0           0           0           0
           0
Atom residue num                           I   N=           7
           0           0           0           0           0           0
           0
Nuclear spins                              I   N=           7
           0           0           1           1           1           1
           1
Nuclear ZEff                               R   N=           7
 -3.60000000E+00 -3.60000000E+00 -1.00000000E+00 -1.00000000E+00 -1.00000000E+00
 -1.00000000E+00 -1.00000000E+00
Nuclear QMom                               R   N=           7
  0.00000000E+00  0.00000000E+00  0.00000000E+00  0.00000000E+00  0.00000000E+00
  0.00000000E+00  0.00000000E+00
Nuclear GFac                               R   N=           7
  0.00000000E+00  0.00000000E+00  2.79284600E+00  2.79284600E+00  2.79284600E+00
  2.79284600E+00  2.79284600E+00
MicOpt                                     I   N=           7
          -1          -1          -1          -1          -1          -1
          -1
Constraint Structure                       R   N=          21
  1.31194393E+00 -4.26521490E-17 -1.45733874E-03 -1.50260153E+00  4.94814810E-17
 -4.37941290E-02  2.09633138E+00 -1.67740407E+00 -9.33366370E-01  2.09633277E+00
  1.67741361E+00 -9.33350756E-01  2.06936287E+00 -1.13291978E-05  1.94488379E+00
 -2.55904170E+00  1.75263540E+00  9.66724358E-02 -2.55903969E+00 -1.75263584E+00
  9.66697027E-02
ONIOM Charges                              I   N=          16
           0           0           0           0           0           0
           0           0           0           0           0           0
           0           0           0           0
ONIOM Multiplicities                       I   N=          16
           2           0           0           0           0           0
           0           0           0           0           0           0
           0           0           0           0
Atom Layers                                I   N=           7
           1           1           1           1           1           1
           1
Atom Modifiers                             I   N=           7
           0           0           0           0           0           0
           0
Int Atom Modified Types                    I   N=           7
           0           0           0           0           0           0
           0
Link Atoms                                 I   N=           7
           0           0           0           0           0           0
           0
Atom Modified MM Charges                   R   N=           7
  0.00000000E+00  0.00000000E+00  0.00000000E+00  0.00000000E+00  0.00000000E+00
  0.00000000E+00  0.00000000E+00
Link Distances                             R   N=          28
  0.00000000E+00  0.00000000E+00  0.00000000E+00  0.00000000E+00  0.00000000E+00
  0.00000000E+00  0.00000000E+00  0.00000000E+00  0.00000000E+00  0.00000000E+00
  0.00000000E+00  0.00000000E+00  0.00000000E+00  0.00000000E+00  0.00000000E+00
  0.00000000E+00  0.00000000E+00  0.00000000E+00  0.00000000E+00  0.00000000E+00
  0.00000000E+00  0.00000000E+00  0.00000000E+00  0.00000000E+00  0.00000000E+00
  0.00000000E+00  0.00000000E+00  0.00000000E+00
MxBond                                     I                4
NBond                                      I   N=           7
           4           3           1           1           1           1
           1
IBond                                      I   N=          28
           2           3           4           5           1           6
           7           0           1           0           0           0
           1           0           0           0           1           0
           0           0           2           0           0           0
           2           0           0           0
RBond                                      R   N=          28
  1.00000000E+00  1.00000000E+00  1.00000000E+00  1.00000000E+00  1.00000000E+00
  1.00000000E+00  1.00000000E+00  0.00000000E+00  1.00000000E+00  0.00000000E+00
  0.00000000E+00  0.00000000E+00  1.00000000E+00  0.00000000E+00  0.00000000E+00
  0.00000000E+00  1.00000000E+00  0.00000000E+00  0.00000000E+00  0.00000000E+00
  1.00000000E+00  0.00000000E+00  0.00000000E+00  0.00000000E+00  1.00000000E+00
  0.00000000E+00  0.00000000E+00  0.00000000E+00
Cartesian Gradient                         R   N=          21
 -1.88271695E-07 -2.72402277E-07  3.16721534E-07  3.99563298E-08 -2.62666275E-07
  9.64609265E-09  8.62665281E-08  1.76637556E-07 -1.92406135E-08  2.63301732E-07
  1.76195792E-07 -2.95639481E-07 -7.87405857E-08 -7.65677541E-08  9.69047855E-08
 -1.58322463E-07  1.99617347E-07 -4.13415746E-08  3.58101540E-08  5.91856066E-08
 -6.70507414E-08
Cartesian Force Constants                  R   N=         231
  4.91166996E-01 -1.59995530E-07  5.71101404E-01 -2.17456354E-02  5.12299047E-07
  4.92860631E-01 -2.41655761E-01 -8.42881495E-08  3.53872267E-03  5.55452792E-01
 -1.25777901E-08 -8.99150774E-02 -2.03637167E-08  2.99451157E-07  6.33109013E-01
 -1.84722853E-03 -1.99262523E-08 -4.28366798E-02 -1.76689066E-02  3.47734091E-07
  5.44981256E-02 -8.18946963E-02  7.57010804E-02  4.66885394E-02 -1.51433279E-02
  2.99167704E-02  1.13635837E-02  9.18661960E-02  7.40414022E-02 -2.22638287E-01
 -9.47103762E-02  2.02348343E-03  1.79450888E-03  1.73212840E-03 -8.51446265E-02
  2.38404172E-01  4.64960221E-02 -9.54188658E-02 -1.00163797E-01 -2.17957219E-03
  2.94239300E-03  1.47379097E-03 -4.68071007E-02  1.06336320E-01  1.05885281E-01
 -8.18948184E-02 -7.57011659E-02  4.66875318E-02 -1.51432459E-02 -2.99168916E-02
  1.13633597E-02  4.32076584E-03  9.46688130E-03 -7.43895998E-03  9.18662624E-02
 -7.40415628E-02 -2.22639305E-01  9.47086484E-02 -2.02340491E-03  1.79454011E-03
 -1.73212221E-03 -9.46684115E-03 -1.96857051E-02  1.29012777E-02  8.51447429E-02
  2.38405422E-01  4.64950842E-02  9.54171571E-02 -1.00161897E-01 -2.17957155E-03
 -2.94237183E-03  1.47371014E-03 -7.43906500E-03 -1.29015254E-02  7.92168309E-03
 -4.68060948E-02 -1.06334493E-01  1.05883058E-01 -6.83729047E-02  4.20965084E-07
 -8.35514426E-02 -2.12847930E-02  1.77017249E-07 -2.56619797E-02  4.71385855E-03
 -5.13356785E-04  1.07930466E-02  4.71384466E-03  5.13262092E-04  1.07930796E-02
  8.16668565E-02  3.44403487E-07 -4.49131343E-02  1.23809791E-06  8.07720916E-08
  5.76927730E-04 -1.07833857E-08 -9.41490879E-03 -1.45740055E-04 -2.70234160E-02
  9.41495940E-03 -1.46018596E-04  2.70235109E-02 -4.90441659E-07  4.46965398E-02
 -6.88647533E-02  1.22011165E-06 -2.54732695E-01 -8.03065249E-03 -2.95095086E-08
  5.69404739E-03 -4.40748709E-03 -1.56269459E-04 -1.55713131E-02 -4.40736039E-03
  1.56405587E-04 -1.55709385E-02  8.66382937E-02 -1.32218933E-06  2.81335243E-01
 -8.67439384E-03  2.53568912E-02  4.19116415E-03 -1.31112857E-01  1.25676584E-01
  1.12256655E-02 -5.50596783E-03 -2.49565665E-04 -1.08071049E-03  1.64317711E-03
 -3.75780771E-04  2.17267706E-04 -7.18450040E-04  1.96280009E-04 -4.64015003E-04
  1.34071448E-01 -3.34119779E-03  4.50220505E-03 -4.94986938E-04  1.26825026E-01
 -2.73679492E-01 -1.58247489E-02 -9.46477105E-04  1.30900862E-03  3.87806014E-04
  6.44995936E-04  9.62051081E-04  1.25518686E-04 -1.12149112E-04 -3.42873445E-05
 -2.46634075E-04 -1.36837322E-01  2.82286495E-01 -2.66742847E-04  3.45772576E-03
  2.51724899E-03  1.32600710E-02 -2.07890328E-02 -1.01515614E-02  9.81740577E-04
 -1.27935014E-03  3.73218041E-04 -3.80201465E-04 -9.79066680E-04  8.11231567E-05
  4.94488546E-04 -9.74248166E-04 -5.77190467E-04 -1.31234184E-02  1.83085227E-02
  4.89957791E-03 -8.67442217E-03 -2.53569823E-02  4.19112003E-03 -1.31112808E-01
 -1.25676926E-01  1.12255060E-02  1.64317163E-03  3.75782012E-04  2.17274675E-04
 -5.50598573E-03  2.49584666E-04 -1.08070020E-03 -7.18411901E-04 -1.96265354E-04
 -4.64025373E-04  1.02970430E-02  1.37671241E-02 -9.65937455E-04  1.34071413E-01
  3.34118657E-03  4.50219452E-03  4.94984670E-04 -1.26825401E-01 -2.73680420E-01
  1.58244256E-02 -6.44997227E-04  9.62043340E-04 -1.25515403E-04  9.46477996E-04
  1.30901567E-03 -3.87796836E-04  1.12136264E-04 -3.42871996E-05  2.46629534E-04
 -1.37670861E-02 -1.53459798E-02  2.25544931E-03  1.36837683E-01  2.82287434E-01
 -2.66746157E-04 -3.45772956E-03  2.51718950E-03  1.32599092E-02  2.07887138E-02
 -1.01514329E-02 -3.80210880E-04  9.79072356E-04  8.11370900E-05  9.81725136E-04
  1.27934975E-03  3.73261248E-04  4.94513881E-04  9.74248142E-04 -5.77153872E-04
 -9.65953490E-04 -2.25547754E-03  2.85758374E-03 -1.31232377E-02 -1.83081769E-02
  4.89941517E-03
Dipole Moment                              R   N=           3
  8.44961644E-02 -5.47707553E-07  5.31456510E-02
Dipole Derivatives                         R   N=          63
  2.94016565E-02  2.47360183E-07  8.51907882E-03  1.16159805E-06  6.04632909E-02
 -4.48239766E-07 -4.47087569E-02 -5.49963942E-07  1.57358501E-01  1.38987324E-01
 -1.31534297E-07 -2.12098770E-02 -6.50926393E-07  1.61026766E-01  4.65128370E-07
 -1.88394439E-02  6.01074584E-07 -3.58700428E-01 -1.44867808E-02  6.39806915E-02
  3.34857446E-02  7.59601755E-02 -7.47352755E-02 -8.44437350E-02  5.48055318E-02
 -8.07066582E-02  2.76736509E-02 -1.44868089E-02 -6.39812073E-02  3.34851596E-02
 -7.59610399E-02 -7.47367393E-02  8.44426932E-02  5.48047154E-02  8.07058290E-02
  2.76751627E-02 -3.51443037E-02  3.31502927E-07 -7.90754941E-02  2.60642198E-07
  7.36371108E-02  1.36339599E-06 -9.24693198E-02  1.18648666E-06 -1.33164557E-01
 -5.21355448E-02  5.11438827E-02  1.23977358E-02  6.92888192E-02 -7.28274262E-02
 -7.96739356E-03  2.32036915E-02 -1.78046379E-02  1.39578867E-01 -5.21355420E-02
 -5.11438142E-02  1.23976523E-02 -6.92887261E-02 -7.28277270E-02  7.96705509E-03
  2.32035819E-02  1.78042295E-02  1.39578804E-01
Polarizability                             R   N=           6
  2.46691110E+01 -5.95762405E-06  2.16281113E+01  2.33661500E-01 -1.75884312E-06
  1.59615276E+01
Anisotropic Hyperfine tensors              R   N=          42
  1.58194926E-02  1.90440175E-08 -1.75944591E-02  3.54542518E-03  7.92679363E-09
  1.77496641E-03 -5.39338147E-01 -4.63317517E-08 -5.35390774E-01  5.98540922E-02
 -1.11863444E-06  1.07472892E+00  1.27476575E-02 -1.02831258E-02 -4.60106420E-03
 -3.40283313E-03  1.31553713E-03 -8.14659329E-03  1.27476199E-02  1.02831486E-02
 -4.60103351E-03 -3.40274152E-03 -1.31549346E-03 -8.14658635E-03  1.24367460E-02
 -6.76016498E-08 -1.08627463E-02  9.74158413E-03 -6.82016362E-08 -1.57399973E-03
 -3.27373356E-02 -6.42913937E-02  3.77664061E-02 -1.90635622E-03  7.61403841E-03
 -5.02907059E-03 -3.27374904E-02  6.42913614E-02  3.77665567E-02 -1.90626317E-03
 -7.61399826E-03 -5.02906621E-03
Isotropic Hyperfine splittings             R   N=           7
 -2.78984759E-02  1.19560067E-01  8.23158185E-03  8.23133582E-03  3.33950562E-02
 -1.51704456E-02 -1.51704376E-02
QEq coupling tensors                       R   N=          42
 -2.43487279E-02 -1.38526402E-07  3.26529737E-02 -6.15814728E-03  3.88650492E-07
 -8.30424578E-03  3.29988703E-02  1.68367913E-07  7.12769087E-02 -3.48250977E-03
  5.29370894E-08 -1.04275779E-01  7.94269198E-02  1.30480833E-01 -1.39003202E-01
  7.31796828E-02 -1.57455525E-01  5.95762825E-02  7.94264405E-02 -1.30481155E-01
 -1.39005569E-01  7.31781975E-02  1.57452949E-01  5.95791280E-02  8.28580642E-02
  7.80782884E-07  1.39966138E-01 -1.39014056E-01  2.08211746E-06 -2.22824203E-01
  2.30323579E-02  1.98003810E-01 -1.86409927E-01  1.68328165E-02 -2.60376079E-02
  1.63377569E-01  2.30327694E-02 -1.98004185E-01 -1.86410824E-01  1.68325412E-02
  2.60371657E-02  1.63378054E-01
Mulliken Charges                           R   N=           7
 -4.51931042E-01 -2.98999615E-01  1.54170254E-01  1.54170034E-01  1.55792175E-01
  1.43399092E-01  1.43399102E-01
Optimization MaxStp                        I              100
Optimization Job offset                    I                0
Optimization Num results per geometry      I                2
Optimization Num geometry variables        I               21
Opt point       1 Results for each geome   R   N=          22
 -7.91552992E+01  0.00000000E+00 -7.91576146E+01  0.00000000E+00 -7.91578049E+01
  0.00000000E+00 -7.91578050E+01  0.00000000E+00 -7.91578627E+01  0.00000000E+00
 -7.91578646E+01  0.00000000E+00 -7.91578678E+01  0.00000000E+00 -7.91578682E+01
  0.00000000E+00 -7.91578683E+01  0.00000000E+00 -7.91578683E+01  0.00000000E+00
 -7.91578683E+01  0.00000000E+00
Opt point       1 Geometries               R   N=         231
 -1.38062924E+00  9.45195833E-05  2.85682127E-05  1.54355376E+00  6.89657831E-05
 -2.96464682E-04 -2.05608777E+00  1.77344951E+00 -8.05363261E-01 -2.05529256E+00
 -1.58422911E+00 -1.13359357E+00 -2.05528093E+00 -1.89847441E-01  1.93873640E+00
  2.59422493E+00 -1.78574798E+00  7.82568940E-04  2.59488922E+00  1.78539411E+00
  1.04524087E-03 -1.32962369E+00  1.56648413E-03  1.15900619E-03  1.51081300E+00
 -9.84220473E-05 -3.79755221E-02 -2.07024723E+00  1.76700001E+00 -7.79376800E-01
 -2.07807651E+00 -1.57933738E+00 -1.10490707E+00 -2.04830297E+00 -1.90021572E-01
  1.94095392E+00  2.54997276E+00 -1.76189693E+00  8.17002379E-02  2.55951808E+00
  1.75544749E+00  8.25288022E-02 -1.31013770E+00  2.46449991E-03 -4.19300093E-03
  1.50060392E+00  2.20716242E-06 -1.57166061E-02 -2.08300657E+00  1.74857427E+00
 -8.07789072E-01 -2.08636211E+00 -1.59412366E+00 -1.07743755E+00 -2.08911762E+00
 -1.60532258E-01  1.92592403E+00  2.55139051E+00 -1.75953167E+00  3.81013315E-02
  2.56429846E+00  1.75081307E+00  4.06589058E-02 -1.30849300E+00  2.38301263E-03
  8.96833265E-04  1.50284355E+00  3.81622105E-05 -6.75483035E-02 -2.10465682E+00
  1.74298149E+00 -7.94152492E-01 -2.11248437E+00 -1.60078050E+00 -1.04318761E+00
 -2.05532093E+00 -1.48438785E-01  1.94664650E+00  2.54712093E+00 -1.75322469E+00
  1.44030931E-01  2.55923789E+00  1.74493544E+00  1.46571490E-01 -1.31242567E+00
  2.10695420E-03 -1.39447421E-03  1.50322697E+00  2.58223313E-05 -4.27232385E-02
 -2.09438736E+00  1.73796023E+00 -8.18817691E-01 -2.09937010E+00 -1.60892172E+00
 -1.04450055E+00 -2.07003710E+00 -1.34484153E-01  1.93972945E+00  2.55406716E+00
 -1.75681173E+00  9.29690259E-02  2.56491964E+00  1.74946072E+00  9.53260386E-02
 -1.31191469E+00  1.78712173E-03 -1.42259598E-03  1.50255982E+00  2.63631402E-05
 -4.30416302E-02 -2.09412630E+00  1.72819660E+00 -8.38751090E-01 -2.09824651E+00
 -1.62124074E+00 -1.02580082E+00 -2.06979610E+00 -1.11574160E-01  1.94135274E+00
  2.55452207E+00 -1.75589060E+00  9.39429248E-02  2.56377608E+00  1.74962799E+00
  9.60415972E-02 -1.31158241E+00  4.69196923E-04 -1.49584327E-03  1.50199101E+00
  3.10384779E-05 -4.40393131E-02 -2.09543344E+00  1.68847868E+00 -9.13835879E-01
 -2.09613652E+00 -1.66634353E+00 -9.52602050E-01 -2.06966565E+00 -2.34227716E-02
  1.94483623E+00  2.55809836E+00 -1.75280239E+00  9.70173389E-02  2.56068564E+00
  1.75108859E+00  9.77952993E-02 -1.31197880E+00  8.74820333E-05 -1.46556106E-03
  1.50244181E+00  1.45267837E-05 -4.39266436E-02 -2.09609756E+00  1.67927306E+00
 -9.30184051E-01 -2.09611115E+00 -1.67571559E+00 -9.36471273E-01 -2.06939812E+00
 -3.82043727E-03  1.94496257E+00  2.55913500E+00 -1.75250300E+00  9.69537761E-02
  2.55969379E+00  1.75215391E+00  9.70922088E-02  1.31197878E+00  1.33052587E-05
 -1.45616476E-03 -1.50257143E+00 -2.38981350E-06 -4.37881606E-02  2.09629137E+00
 -1.67702424E+00 -9.34076638E-01  2.09623493E+00  1.67783646E+00 -9.32671006E-01
  2.06933190E+00 -8.47530686E-04  1.94489204E+00 -2.55916763E+00  1.75255526E+00
  9.66753346E-02 -2.55913472E+00 -1.75258544E+00  9.66462225E-02  1.31195065E+00
  5.48940424E-06 -1.45574547E-03 -1.50260091E+00  5.85469173E-17 -4.37877699E-02
  2.09633657E+00 -1.67728181E+00 -9.33584348E-01  2.09632593E+00  1.67753424E+00
 -9.33143345E-01  2.06935768E+00 -2.68260978E-04  1.94488040E+00 -2.55907164E+00
  1.75261944E+00  9.66597022E-02 -2.55904700E+00 -1.75263649E+00  9.66486874E-02
  1.31194381E+00  3.80366123E-07 -1.45709423E-03 -1.50260118E+00  8.58114418E-08
 -4.37940130E-02  2.09633141E+00 -1.67740454E+00 -9.33366286E-01  2.09633192E+00
  1.67741301E+00 -9.33350953E-01  2.06936227E+00 -9.81281529E-06  1.94488263E+00
 -2.55904193E+00  1.75263431E+00  9.66710382E-02 -2.55903949E+00 -1.75263577E+00
  9.66702143E-02
Opt point       1 Gradient at each geome   R   N=         231
 -4.04105889E-02 -1.05055664E-03  3.79373008E-03  1.74686326E-02 -5.56325410E-04
  2.31502162E-03  4.71925380E-03 -9.80399029E-04 -7.18963405E-04  5.13119158E-03
  1.70421012E-03 -4.23744627E-04  6.99170427E-03  6.14185909E-04 -3.47016110E-03
  3.15161945E-03 -7.35262431E-03 -7.46305071E-04  2.94818715E-03  7.62150936E-03
 -7.49577502E-04 -1.29708793E-02 -5.45335566E-04  2.20111305E-03  7.46795222E-03
 -1.14710947E-04  3.92983828E-04  2.34224183E-03 -3.59650646E-04 -3.70456615E-04
  2.40088380E-03  6.63731575E-04 -3.79647080E-04  3.09446123E-03  2.45913881E-04
 -1.41788242E-03 -1.15256443E-03  1.85470626E-04 -1.61173579E-04 -1.18209539E-03
 -7.54189221E-05 -2.64937185E-04  1.10223043E-03  9.73871364E-05 -1.52055605E-04
 -6.20177635E-04  9.68480841E-05  1.52066214E-03  1.28740189E-04 -1.16123711E-04
 -9.32472206E-05  6.81127254E-05  4.98633904E-05 -7.43630639E-05  2.07610742E-04
 -6.45596405E-05 -9.33451268E-05 -4.54120558E-04  3.05533016E-05 -5.35465919E-04
 -4.32395891E-04 -9.39685609E-05 -5.72185201E-04  2.12979922E-03  1.51192999E-04
  3.27808467E-04 -3.01552568E-04  1.01826174E-04 -1.65687468E-03 -4.40231444E-04
  5.12607710E-05  1.71214143E-04 -5.25956294E-04 -1.55851220E-04  7.10430137E-05
 -6.27188517E-04 -9.49631851E-05 -6.95876433E-05 -1.33913762E-04  2.95603392E-04
  6.55372685E-04 -1.00956635E-04 -3.49068932E-04  5.01024015E-04 -2.65709317E-04
  1.37776451E-04  5.15680325E-05  3.20236070E-04  6.95988201E-05  3.44271605E-05
 -6.96087633E-06 -4.44008062E-05  9.39784958E-06 -7.55788890E-05 -4.39760708E-05
 -3.45357572E-05  1.88043784E-05 -7.55038921E-05 -4.92061749E-05 -9.29366533E-06
 -9.33622424E-05  3.71876756E-05  1.85022990E-05  4.98677402E-05 -4.88387861E-05
  3.63370326E-05  1.30295038E-04  1.57393595E-05 -3.69975421E-05  6.66233560E-05
  1.63902999E-05  2.52374779E-05 -4.08945640E-05  7.16945747E-06 -3.84346263E-05
 -4.46576321E-05 -2.92576141E-05  5.89555015E-06 -7.14414209E-05 -1.57261963E-06
 -1.00989623E-05 -4.03774814E-05  3.18407093E-05  1.80610701E-05  4.52704206E-07
 -4.03095924E-05  2.61439186E-04  7.06062205E-05 -9.29177511E-05 -3.76628860E-04
  3.80375959E-05 -4.41255843E-05  4.41829879E-05 -2.28930228E-05  1.84788386E-05
  1.50967660E-05 -2.99144799E-05  1.24722449E-05 -5.29410138E-05 -3.24481488E-05
  8.50957759E-05  4.53762533E-05  5.56309661E-05  1.80752737E-05  6.34746810E-05
 -7.90191311E-05  2.92120233E-06 -5.94643489E-06  1.39043361E-05 -3.37100411E-05
 -1.17108535E-04  9.80808506E-06 -2.14511047E-05  2.36913045E-05 -6.01087392E-06
  9.44071042E-06  2.08123567E-05 -5.36788298E-06  7.75156806E-06 -7.80842937E-06
 -5.71320580E-06  2.52863105E-05  4.02388722E-05  1.40990292E-05  7.60192676E-06
  4.61208662E-05 -2.07194877E-05  5.08063010E-06  2.01838862E-05  2.57264368E-06
  2.54335545E-07  2.30186898E-05 -6.68160344E-07 -1.35708250E-06 -6.12161048E-06
  1.67089885E-07  9.60934875E-07 -7.70695543E-06 -1.26225481E-06  7.37557574E-07
 -5.94822020E-06 -1.17892959E-06 -1.88104325E-06 -1.13264941E-05 -2.12630804E-06
  3.99575347E-07 -1.20992958E-05  2.49591923E-06  8.85722416E-07  3.68593248E-06
  1.20422913E-06  2.57476448E-06  1.30539597E-06  1.72595569E-07  5.21741007E-07
  2.15310057E-07 -2.59909173E-07 -4.98067697E-07 -2.94892970E-07 -5.34345136E-07
 -4.57841747E-07 -1.67978726E-06 -4.70397621E-07 -1.92725952E-06 -1.66622719E-06
 -2.85494923E-07 -1.79632600E-07 -1.56573110E-06  1.73322158E-07 -3.37039108E-08
 -1.16851685E-07  1.21246594E-07  7.40146352E-07  1.16426861E-07  4.49631522E-08
  2.57275866E-08  1.63735038E-07 -3.55641139E-08 -1.59989795E-07  1.38770964E-07
 -5.97568697E-08 -1.49602225E-07 -2.57642761E-07 -3.89170165E-08 -3.30811739E-07
 -4.08182212E-08 -7.90498484E-08 -6.41030213E-08 -3.62022079E-09  4.70780992E-08
 -6.13671521E-08
Optimization Number of geometries          I   N=           1
          11
