no title                                                                
Freq      RB3LYP                                                      6-31G(d)            
Number of atoms                            I                6
Charge                                     I                0
Multiplicity                               I                1
Number of electrons                        I               16
Number of alpha electrons                  I                8
Number of beta electrons                   I                8
Number of basis functions                  I               38
Number of independant functions            I               38
Number of point charges in /Mol/           I                0
Number of translation vectors              I                0
Info1-9                                    I   N=           9
          18          15           0           0           0         100
           6          18        -502
Num ILSW                                   I              100
ILSW                                       I   N=         100
           0           1           0           0           2           0
           0           0           0           0         402      200000
           5           0           0           0           0           0
           0      800000           0           0           1           0
           1           0           0           0     1000000           0
           0           0      100000           0          -1           0
           0           0           0           0           0           0
           0           0           0           1           0           0
           0           0           1      720000      810000           0
           0           0           0           0           0           0
           0           0           0           0           0           0
           0           0           0           0           0           0
           0           0           0           0           0           0
           0           0           0           0           0           0
           0           0           0           0           0           0
           0           0           0           0           0           0
           0           0           0           0
Number of contracted shells                I               16
Highest angular momentum                   I                2
Largest degree of contraction              I                6
Number of primitive shells                 I               38
Pure/Cartesian d shells                    I                1
Pure/Cartesian f shells                    I                0
Virial Ratio                               R      2.010510669797077E+00
SCF Energy                                 R     -7.858745868716800E+01
Total Energy                               R     -7.858745868716800E+01
RMS Force                                  R      2.054426999185053E-07
RMS Density                                R      5.707751931632492E-09
Atomic numbers                             I   N=           6
           6           6           1           1           1           1
Nuclear charges                            R   N=           6
  6.00000000E+00  6.00000000E+00  1.00000000E+00  1.00000000E+00  1.00000000E+00
  1.00000000E+00
Current cartesian coordinates              R   N=          18
  1.25756597E+00  1.74522336E-16 -6.10828178E-17 -1.25756531E+00 -1.74522245E-16
  6.10827858E-17  2.34245953E+00 -1.74533235E+00 -1.13778547E-16  2.34246027E+00
  1.74533272E+00 -1.13778583E-16 -2.34246300E+00 -1.74532941E+00  1.13778716E-16
 -2.34246074E+00  1.74533196E+00  1.13778606E-16
Int Atom Types                             I   N=           6
           0           0           0           0           0           0
Force Field                                I                0
MM charges                                 R   N=           6
  0.00000000E+00  0.00000000E+00  0.00000000E+00  0.00000000E+00  0.00000000E+00
  0.00000000E+00
Integer atomic weights                     I   N=           6
          12          12           1           1           1           1
Real atomic weights                        R   N=           6
  1.20000000E+01  1.20000000E+01  1.00782504E+00  1.00782504E+00  1.00782504E+00
  1.00782504E+00
Atom residue info                          I   N=           6
           0           0           0           0           0           0
Atom fragment info                         I   N=           6
           0           0           0           0           0           0
Atom residue num                           I   N=           6
           0           0           0           0           0           0
Nuclear spins                              I   N=           6
           0           0           1           1           1           1
Nuclear ZEff                               R   N=           6
 -3.60000000E+00 -3.60000000E+00 -1.00000000E+00 -1.00000000E+00 -1.00000000E+00
 -1.00000000E+00
Nuclear QMom                               R   N=           6
  0.00000000E+00  0.00000000E+00  0.00000000E+00  0.00000000E+00  0.00000000E+00
  0.00000000E+00
Nuclear GFac                               R   N=           6
  0.00000000E+00  0.00000000E+00  2.79284600E+00  2.79284600E+00  2.79284600E+00
  2.79284600E+00
MicOpt                                     I   N=           6
          -1          -1          -1          -1          -1          -1
Constraint Structure                       R   N=          18
  1.25756597E+00  1.74522336E-16 -6.10828178E-17 -1.25756531E+00 -1.74522245E-16
  6.10827858E-17  2.34245953E+00 -1.74533235E+00 -1.13778547E-16  2.34246027E+00
  1.74533272E+00 -1.13778583E-16 -2.34246300E+00 -1.74532941E+00  1.13778716E-16
 -2.34246074E+00  1.74533196E+00  1.13778606E-16
ONIOM Charges                              I   N=          16
           0           0           0           0           0           0
           0           0           0           0           0           0
           0           0           0           0
ONIOM Multiplicities                       I   N=          16
           1           0           0           0           0           0
           0           0           0           0           0           0
           0           0           0           0
Atom Layers                                I   N=           6
           1           1           1           1           1           1
Atom Modifiers                             I   N=           6
           0           0           0           0           0           0
Int Atom Modified Types                    I   N=           6
           0           0           0           0           0           0
Link Atoms                                 I   N=           6
           0           0           0           0           0           0
Atom Modified MM Charges                   R   N=           6
  0.00000000E+00  0.00000000E+00  0.00000000E+00  0.00000000E+00  0.00000000E+00
  0.00000000E+00
Link Distances                             R   N=          24
  0.00000000E+00  0.00000000E+00  0.00000000E+00  0.00000000E+00  0.00000000E+00
  0.00000000E+00  0.00000000E+00  0.00000000E+00  0.00000000E+00  0.00000000E+00
  0.00000000E+00  0.00000000E+00  0.00000000E+00  0.00000000E+00  0.00000000E+00
  0.00000000E+00  0.00000000E+00  0.00000000E+00  0.00000000E+00  0.00000000E+00
  0.00000000E+00  0.00000000E+00  0.00000000E+00  0.00000000E+00
MxBond                                     I                3
NBond                                      I   N=           6
           3           3           1           1           1           1
IBond                                      I   N=          18
           2           3           4           1           5           6
           1           0           0           1           0           0
           2           0           0           2           0           0
RBond                                      R   N=          18
  2.00000000E+00  1.00000000E+00  1.00000000E+00  2.00000000E+00  1.00000000E+00
  1.00000000E+00  1.00000000E+00  0.00000000E+00  0.00000000E+00  1.00000000E+00
  0.00000000E+00  0.00000000E+00  1.00000000E+00  0.00000000E+00  0.00000000E+00
  1.00000000E+00  0.00000000E+00  0.00000000E+00
Cartesian Gradient                         R   N=          18
 -2.29221954E-07 -1.08132666E-07  1.77988036E-09  5.34723386E-07 -4.25027381E-07
 -9.07053792E-10 -1.51260214E-07  1.21753621E-07 -1.40734660E-10  1.60301348E-08
  8.95494150E-08 -2.25632421E-10 -4.14310302E-08  3.98427676E-07 -2.95146586E-10
 -1.28840362E-07 -7.65706685E-08 -2.11312900E-10
Cartesian Force Constants                  R   N=         171
  8.80428764E-01 -4.08540211E-07  6.40949478E-01 -9.61407971E-10  7.65198460E-11
  1.07538947E-01 -5.89079547E-01 -1.65869864E-09  1.13838104E-10  8.80429639E-01
 -6.84117413E-09 -1.15621925E-01  1.04328681E-11  7.82115968E-07  6.40948997E-01
  5.06961421E-10 -1.05451897E-11 -4.53113569E-02  3.53957003E-11 -7.61091745E-11
  1.07538979E-01 -1.32137863E-01  1.21174948E-01  2.48020464E-10 -1.35368516E-02
  3.01899517E-02 -2.05803560E-11  1.38907926E-01  1.24896937E-01 -2.66772520E-01
 -1.02838111E-10 -1.65859454E-03  4.10843129E-03  1.31675184E-10 -1.36531053E-01
  2.76722670E-01  3.84816231E-10 -2.42342230E-10 -3.60732810E-02 -1.52155614E-10
 -2.70002289E-11  4.95954772E-03 -1.76084591E-10  9.27028593E-11  2.42048371E-02
 -1.32137739E-01 -1.21174589E-01  2.03927995E-10 -1.35368596E-02 -3.01899224E-02
 -2.65958064E-11  1.03437669E-02  1.38839704E-02 -5.45326532E-11  1.38907803E-01
 -1.24896563E-01 -2.66771948E-01  2.60328877E-11  1.65860314E-03  4.10843061E-03
 -1.21229914E-10 -1.38839879E-02 -1.69943608E-02  2.53919441E-11  1.36530681E-01
  2.76722098E-01  3.26353916E-10  1.75362946E-10 -3.60733522E-02 -8.65377044E-11
  2.52811418E-11  4.95951786E-03 -7.54629727E-11 -3.44783230E-11  2.36702240E-03
 -1.45763401E-10 -1.63990210E-11  2.42049413E-02 -1.35367905E-02 -3.01898616E-02
  2.00923477E-10 -1.32138505E-01 -1.21175468E-01 -2.26147096E-10  1.45255534E-03
  1.79297311E-04  4.66337441E-11 -5.02952242E-03  7.70561218E-04 -5.54743580E-11
  1.38908486E-01  1.65864463E-03  4.10848434E-03  5.37822987E-11 -1.24897361E-01
 -2.66772167E-01  9.21968266E-11 -1.79305361E-04  1.37335843E-03  5.61182108E-11
  7.70561846E-04  1.56241627E-03 -9.69757252E-11  1.36531476E-01  2.76722408E-01
 -1.60857726E-10  1.77936144E-10  4.95951664E-03  7.35340469E-11 -3.37529033E-10
 -3.60732625E-02 -8.69809817E-11  1.18182262E-10 -8.64532535E-03  1.19348227E-10
  2.07735509E-10  1.31871950E-02 -2.55426444E-11 -1.40267964E-10  2.42047941E-02
 -1.35368256E-02  3.01899131E-02  1.94233158E-10 -1.32137877E-01  1.21174663E-01
 -2.69447967E-10 -5.02953431E-03 -7.70557655E-04 -4.79632351E-11  1.45255124E-03
 -1.79295120E-04  3.74812412E-11  1.03437762E-02 -1.38840158E-02  8.10189117E-11
  1.38907909E-01 -1.65860356E-03  4.10842967E-03 -6.44218101E-11  1.24896572E-01
 -2.66771767E-01 -1.56963609E-11 -7.70553400E-04  1.56242098E-03  9.49938019E-11
  1.79297598E-04  1.37336395E-03 -5.23707189E-11  1.38839951E-02 -1.69945007E-02
 -2.71209522E-11 -1.36530708E-01  2.76722053E-01 -9.56309607E-11 -1.77309635E-10
  4.95952588E-03  1.57543006E-11  4.05167011E-10 -3.60734251E-02  1.11605086E-10
 -2.05121810E-10  1.31871991E-02 -9.63599012E-11 -1.21399738E-10 -8.64532440E-03
  5.96855282E-11  3.51157098E-11  2.36708204E-03  4.74636302E-12  6.43857606E-11
  2.42049424E-02
Dipole Moment                              R   N=           3
 -1.92234928E-07 -1.29818745E-07 -1.97568538E-08
Dipole Derivatives                         R   N=          54
  1.18393207E-02  1.15199860E-07 -9.66486516E-10  1.05364859E-07  1.35957021E-01
 -7.68612257E-11 -2.01668035E-08 -8.87070140E-11 -2.71030192E-01  1.18394711E-02
 -2.71816778E-07  2.50112110E-09 -3.02909796E-07  1.35957389E-01  7.70411165E-11
  1.24601897E-08  8.86960644E-11 -2.71030194E-01 -5.91960784E-03  5.88531463E-02
  7.73690442E-10  7.84461834E-02 -6.79785227E-02 -2.68345290E-10  6.21187025E-09
 -4.93224581E-09  1.35515206E-01 -5.91958460E-03 -5.88531249E-02  6.94218939E-10
 -7.84462704E-02 -6.79784413E-02  2.20121858E-10  6.94590987E-09  5.06300571E-09
  1.35515096E-01 -5.91969461E-03 -5.88535038E-02 -1.46074936E-09 -7.84462264E-02
 -6.79784510E-02  2.13101901E-10 -3.08283916E-09 -2.06139547E-09  1.35515131E-01
 -5.91990475E-03  5.88536391E-02 -1.54116048E-09  7.84465109E-02 -6.79789953E-02
 -1.66033642E-10 -2.36927633E-09  1.93195579E-09  1.35514953E-01
Polarizability                             R   N=           6
  3.07803665E+01 -1.05868747E-06  2.04076724E+01 -1.02127395E-08  1.20170540E-12
  8.51127452E+00
QEq coupling tensors                       R   N=          36
  1.76610036E-01 -1.77798948E-07  8.53620595E-02 -1.54614139E-09  1.00061321E-09
 -2.61972096E-01  1.76610073E-01  1.25702200E-07  8.53622061E-02 -6.18687602E-09
 -9.99894667E-10 -2.61972279E-01  1.93110172E-02  1.99194703E-01 -1.77125708E-01
 -1.14454660E-09  1.81575759E-09  1.57814691E-01  1.93109015E-02 -1.99194280E-01
 -1.77125251E-01 -1.23017169E-09 -1.94792269E-09  1.57814350E-01  1.93102367E-02
 -1.99195300E-01 -1.77125052E-01  4.39225644E-10  7.84520994E-10  1.57814815E-01
  1.93107372E-02  1.99194385E-01 -1.77125112E-01  3.53729505E-10 -6.52448356E-10
  1.57814374E-01
Mulliken Charges                           R   N=           6
 -2.85455640E-01 -2.85455761E-01  1.42727878E-01  1.42727859E-01  1.42727910E-01
  1.42727754E-01
Optimization MaxStp                        I              100
Optimization Job offset                    I                0
Optimization Num results per geometry      I                2
Optimization Num geometry variables        I               18
Opt point       1 Results for each geome   R   N=          26
 -7.85505932E+01  0.00000000E+00 -7.85833187E+01  0.00000000E+00 -7.85872872E+01
  0.00000000E+00 -7.85854379E+01  0.00000000E+00 -7.85873173E+01  0.00000000E+00
 -7.85873694E+01  0.00000000E+00 -7.85873381E+01  0.00000000E+00 -7.85874304E+01
  0.00000000E+00 -7.85874585E+01  0.00000000E+00 -7.85874234E+01  0.00000000E+00
 -7.85874587E+01  0.00000000E+00 -7.85874587E+01  0.00000000E+00 -7.85874587E+01
  0.00000000E+00
Opt point       1 Geometries               R   N=         234
  1.46221315E+00 -5.18739463E-05 -1.49458726E-03 -1.46228803E+00 -3.41386751E-05
  1.07142316E-04  2.47595380E+00 -1.80160307E+00  7.25181865E-04  2.47600589E+00
  1.80145734E+00  6.27546386E-03 -2.47632719E+00 -1.80133556E+00  3.43704613E-03
 -2.47518324E+00  1.80199737E+00 -2.11302216E-03  1.31284368E+00 -3.79853569E-05
 -9.94899178E-04 -1.31289692E+00 -2.25357090E-05  2.18342656E-04  2.32590319E+00
 -1.78763196E+00  2.29606566E-04  2.32585517E+00  1.78757083E+00  4.15484909E-03
 -2.32609323E+00 -1.78748956E+00  2.09998689E-03 -2.32534570E+00  1.78791381E+00
 -1.82510341E-03  1.25479357E+00 -6.46077439E-06 -1.76682099E-03 -1.25482779E+00
 -2.34324779E-05 -3.81034635E-03  2.31480103E+00 -1.76071065E+00  3.25615762E-03
  2.31472574E+00  1.76070417E+00  1.01516968E-02 -2.31478849E+00 -1.76065374E+00
  1.34759560E-02 -2.31453294E+00  1.76083959E+00  6.57919365E-03 -1.25484333E+00
  1.26110143E-03 -3.25638700E-02  1.25601024E+00 -1.64206600E-03 -5.29036338E-02
 -2.32977026E+00 -1.74554428E+00  7.57485479E-02 -2.32513372E+00  1.74498778E+00
  1.47467694E-01  2.32226526E+00 -1.74145599E+00  1.80882205E-01  2.32563730E+00
  1.74429828E+00  1.08706575E-01 -1.25487321E+00 -1.05840488E-05 -2.07945474E-03
  1.25489558E+00 -1.39752874E-05 -2.54764964E-03 -2.31704137E+00 -1.75923813E+00
  5.57735289E-03 -2.31699333E+00  1.75923083E+00  7.54302815E-03  2.31707367E+00
 -1.75919643E+00  8.30434474E-03  2.31682683E+00  1.75935109E+00  6.33790050E-03
  1.25909556E+00 -9.99077998E-05 -9.08046379E-03 -1.25901694E+00  4.90716301E-06
  2.66995689E-03  2.35295032E+00 -1.73684658E+00  3.68103246E-02  2.35289319E+00
  1.73725674E+00  1.28373126E-03 -2.35324457E+00 -1.73700246E+00 -1.75746432E-02
 -2.35307064E+00  1.73716230E+00  1.79436287E-02 -1.25704063E+00 -1.41938098E-04
 -9.75197662E-03  1.25699015E+00 -7.60891405E-05  6.93437315E-03 -2.35038048E+00
 -1.73756384E+00  4.37092947E-02 -2.35000218E+00  1.73834027E+00 -8.48652005E-03
  2.35050939E+00 -1.73770137E+00 -3.52522448E-02  2.35017617E+00  1.73823310E+00
  1.69350910E-02 -1.25817186E+00 -5.29256208E-06 -6.32484502E-04  1.25814881E+00
  1.28332374E-06 -1.63842235E-03 -2.35191255E+00  1.73767348E+00  6.86036350E-04
 -2.35182699E+00 -1.73773035E+00  4.51240884E-03  2.35187416E+00  1.73767954E+00
  6.12669567E-03  2.35200368E+00 -1.73759861E+00  2.30030027E-03 -1.25768672E+00
 -1.29034416E-06 -5.26280188E-04  1.25768071E+00  3.80213988E-07  5.15399879E-04
 -2.34248684E+00 -1.74544900E+00  1.53254336E-05 -2.34250428E+00  1.74543609E+00
  1.69514298E-03  2.34252948E+00 -1.74542186E+00  1.73150407E-05  2.34249772E+00
  1.74544023E+00 -1.66250160E-03  1.25739074E+00 -3.55674757E-05  6.03295002E-03
 -1.25739567E+00 -4.22891724E-05 -6.57620949E-03  2.34141555E+00  1.74617627E+00
  3.20178170E-03  2.34156223E+00 -1.74593506E+00 -2.18849980E-02 -2.34142554E+00
  1.74616170E+00 -1.57222676E-03 -2.34152267E+00 -1.74593577E+00  2.35149999E-02
 -1.25766715E+00 -1.44917131E-06 -6.20634030E-05  1.25766159E+00  1.38719416E-07
  1.35127950E-05 -2.34242080E+00 -1.74549825E+00  2.41041931E-04 -2.34243723E+00
  1.74548685E+00  2.63417628E-05  2.34246148E+00 -1.74547238E+00 -9.53909683E-05
  2.34242990E+00  1.74549164E+00  1.19310922E-04  1.25755020E+00  3.81568740E-08
 -1.34415571E-06 -1.25754836E+00 -3.66143188E-07  2.41456278E-07  2.34245096E+00
 -1.74532797E+00  9.42788041E-06  2.34244812E+00  1.74532895E+00 -3.56606734E-06
 -2.34245560E+00 -1.74532421E+00 -6.11979542E-06 -2.34245450E+00  1.74532519E+00
  6.87417894E-06  1.25756657E+00 -5.92380704E-08 -5.56716156E-07 -1.25756583E+00
 -7.79131216E-08  1.89831667E-07  2.34245973E+00 -1.74533262E+00  8.99040030E-07
  2.34245913E+00  1.74533283E+00  1.40398236E-06 -2.34246218E+00 -1.74533091E+00
  2.01613746E-07 -2.34246112E+00  1.74533153E+00 -3.03329204E-07
Opt point       1 Gradient at each geome   R   N=         234
  1.41234083E-01  3.13382787E-05 -3.77864759E-04 -1.41280926E-01 -6.51137416E-05
  6.81434385E-05  2.34291824E-03 -7.01505416E-03  1.93376654E-05  2.35231297E-03
  7.01359571E-03  2.24258965E-04 -2.33697724E-03 -7.00113506E-03  1.35537490E-04
 -2.31141062E-03  7.03636897E-03 -6.94128000E-05  6.37018627E-02  2.19537446E-05
 -2.71316929E-04 -6.37363044E-02 -3.97106161E-05  9.41973665E-05 -3.70972925E-03
 -3.59965975E-03  3.86373491E-06 -3.70783949E-03  3.59896175E-03  1.67979343E-04
  3.71628943E-03 -3.59394052E-03  8.47049305E-05  3.73572103E-03  3.61239538E-03
 -7.94284458E-05 -1.48053291E-03  1.03890972E-05 -3.89914590E-04  1.46126791E-03
 -2.02141753E-05 -9.74443314E-04 -2.00474343E-03 -1.51150538E-03  1.11063346E-04
 -2.00658755E-03  1.50917231E-03  4.14933261E-04  2.01302483E-03 -1.50545751E-03
  5.71096397E-04  2.01757116E-03  1.51761566E-03  2.67264901E-04  2.20767099E-03
  3.13625415E-04 -7.64223777E-03 -1.85636169E-03 -4.53801626E-04 -1.33959340E-02
  9.22803865E-04  2.09426140E-04  2.93423935E-03  1.12978306E-03 -5.11321924E-04
  6.04203645E-03 -1.31655718E-03  8.90103252E-04  7.57561498E-03 -1.08733904E-03
 -4.48031258E-04  4.48628096E-03  1.51827028E-03  8.48867109E-06 -4.99719477E-04
 -1.50421832E-03 -1.63361396E-05 -6.33522597E-04  1.85321015E-03 -1.33918474E-03
  2.22160106E-04  1.85412172E-03  1.33800592E-03  3.08699682E-04 -1.85811119E-03
 -1.33593710E-03  3.44454493E-04 -1.86327263E-03  1.34496339E-03  2.57927793E-04
  1.70916295E-03 -3.90859083E-05 -2.46187259E-03 -1.67736226E-03  4.89307384E-06
  8.69816038E-04  4.42965468E-04  1.30266566E-03  1.61084458E-03  4.52800203E-04
 -1.26984943E-03  7.59024582E-05 -4.64238529E-04  1.28014661E-03 -8.15006408E-04
 -4.63327826E-04 -1.27877001E-03  7.20315922E-04  8.98970291E-04 -5.84363024E-05
 -2.71256181E-03 -9.19525026E-04 -2.01484031E-05  2.01157248E-03 -3.87855037E-04
  1.10190199E-03  1.94256336E-03 -3.96546793E-04 -1.05136826E-03 -3.21192654E-04
  3.99482228E-04  1.08689905E-03 -1.59225938E-03  4.05474337E-04 -1.05884807E-03
  6.71878005E-04 -5.71801011E-04  6.91757431E-06 -1.39845605E-04  5.58235118E-04
 -9.80352874E-06 -4.24948384E-04 -4.37860601E-04 -1.16499482E-03  2.01278105E-05
 -4.34076680E-04  1.16472238E-03  1.85817229E-04  4.40963437E-04 -1.16906100E-03
  2.62270198E-04  4.44539737E-04  1.17221939E-03  9.65787517E-05 -1.37968291E-04
  1.21829951E-06 -1.49844541E-04  1.33804644E-04 -1.50628421E-06  1.47141253E-04
 -4.07303923E-06 -2.13526114E-05  3.84736116E-06 -5.05249273E-06  2.16135451E-05
  7.72092063E-05  7.29395328E-06 -2.10479011E-05 -2.49561272E-06  5.99522599E-06
  2.10749520E-05 -7.58576670E-05 -2.41568991E-04 -1.50732644E-05  1.73034451E-03
  2.40288277E-04 -1.37442608E-05 -1.86563204E-03 -2.60472220E-05  1.43848472E-04
  9.92167069E-05 -2.78524734E-05 -1.29805223E-04 -9.97541074E-04  2.57152855E-05
  1.43500417E-04 -3.15676063E-05  2.94651235E-05 -1.28726141E-04  1.06517950E-03
 -1.12764004E-04  1.14312772E-06 -1.68158364E-05  1.08886005E-04 -1.59864267E-06
  4.73041566E-06 -2.25430434E-06 -3.02273552E-05  1.06016274E-05 -3.21459564E-06
  3.05333905E-05  1.22431104E-06  5.28673397E-06 -2.99461495E-05 -4.55887343E-06
  4.06016557E-06  3.00956292E-05  4.81835575E-06 -2.05100635E-05  1.86271629E-07
 -3.63174413E-07  2.17245713E-05 -2.79778268E-07  8.87579517E-08 -1.83543904E-07
  3.85905817E-07  4.12996122E-07 -3.79834926E-07 -5.79508983E-07 -1.54464839E-07
 -2.69023867E-07  8.25450653E-07 -2.75787254E-07 -3.82105163E-07 -5.38340847E-07
  2.91672432E-07  6.84943823E-07  2.18948254E-08 -1.51991709E-07 -1.67533916E-07
 -5.97048914E-08  6.06871752E-08 -1.85934707E-07  9.93380449E-08  4.01781403E-08
 -2.04553074E-07 -1.02865785E-07  6.25517503E-08 -7.20901256E-08  1.87369160E-07
  5.47390093E-09 -5.48320225E-08 -1.46031338E-07 -1.68992580E-08
Optimization Number of geometries          I   N=           1
          13
