comment                                                                 
Freq      RHF                                                         3-21G*              
Number of atoms                            I               36
Charge                                     I                2
Multiplicity                               I                1
Number of electrons                        I              142
Number of alpha electrons                  I               71
Number of beta electrons                   I               71
Number of basis functions                  I              205
Number of independant functions            I              205
Number of point charges in /Mol/           I                0
Number of translation vectors              I                0
Info1-9                                    I   N=           9
          47          44           0           0           0         100
           6           1           2
Num ILSW                                   I              100
ILSW                                       I   N=         100
           0           1           0           0           2           0
           0           0           0           0           0     1000000
           0           0           0           0           0           0
           0     1000000           1           0           1           0
           1           1           0           0     1000000           0
           0           0      100000           0          -1           0
           0           0           0           0           0           0
           0           0           0           1           0           0
           0           0           1     1000000     1000000           0
           0           0           0           0           0           0
           0           0           0           0           0           0
           0           0           0           0           0           0
           0           0           0           0           0           0
           0           0           0           0           0           0
           0           0           0           0           0           0
           0           0           0           0           0           0
           0           0           0           0
Number of contracted shells                I               91
Highest angular momentum                   I                1
Largest degree of contraction              I                3
Number of primitive shells                 I              165
Pure/Cartesian d shells                    I                1
Pure/Cartesian f shells                    I                0
Virial Ratio                               R      2.002460642927473E+00
SCF Energy                                 R     -9.544334636239144E+02
Total Energy                               R     -9.544334636239144E+02
RMS Force                                  R      1.011760386764060E-05
RMS Density                                R      2.090440113531450E-09
Atomic numbers                             I   N=          36
           6           8           6           6           6           1
           1           1           8           1           1           6
           6           6           1           6           6           1
           1           1           7           7           7           7
           8           1           1           6           1           1
           8           1           1           7           1           1
Nuclear charges                            R   N=          36
  6.00000000E+00  8.00000000E+00  6.00000000E+00  6.00000000E+00  6.00000000E+00
  1.00000000E+00  1.00000000E+00  1.00000000E+00  8.00000000E+00  1.00000000E+00
  1.00000000E+00  6.00000000E+00  6.00000000E+00  6.00000000E+00  1.00000000E+00
  6.00000000E+00  6.00000000E+00  1.00000000E+00  1.00000000E+00  1.00000000E+00
  7.00000000E+00  7.00000000E+00  7.00000000E+00  7.00000000E+00  8.00000000E+00
  1.00000000E+00  1.00000000E+00  6.00000000E+00  1.00000000E+00  1.00000000E+00
  8.00000000E+00  1.00000000E+00  1.00000000E+00  7.00000000E+00  1.00000000E+00
  1.00000000E+00
Current cartesian coordinates              R   N=         108
 -3.26049001E+00  5.84114348E-02 -3.58804191E-01 -6.54920497E-01 -6.44037564E-01
  2.21084730E-01  9.71064120E-01  1.48152639E+00  1.13321207E-01 -6.47508991E-01
  3.76099531E+00 -6.86044286E-01 -3.31615189E+00  2.92328728E+00  1.14969048E-01
 -7.65074523E-02  5.41843820E+00  3.46239402E-01 -5.61484878E-01  4.09334523E+00
 -2.69844388E+00 -4.78828634E+00  3.88507473E+00 -9.22628549E-01 -3.47629106E+00
  3.41029049E+00  2.78648622E+00 -5.18021554E+00  3.30706798E+00  3.44067162E+00
  1.94817536E+00  1.82311518E+00  1.86018027E+00  5.28573785E+00  1.64028417E+00
 -2.18911167E+00  2.51632719E+00 -1.15800717E+00 -3.50496766E+00  6.40957688E+00
  2.69097001E-01 -4.08702976E+00  7.40215175E-01 -2.18742792E+00 -3.67000689E+00
  8.91287630E+00  8.15550997E-01 -4.76687008E+00  8.68688395E+00  4.02878462E+00
 -1.51959303E+00  4.75823214E+00 -2.78515208E+00 -6.24060324E+00  9.72063029E+00
  5.49238129E+00 -5.93124562E-01  1.17393529E+01  3.25135885E+00 -3.75892795E+00
  2.89602042E+00  7.33200512E-01 -1.87881674E+00  4.59600293E+00 -1.47610855E+00
 -4.88246651E+00  6.39441750E+00  3.52128166E+00 -8.99908372E-01  9.94472157E+00
  2.72960547E+00 -3.40074926E+00  1.32366812E+00  4.30755891E+00  4.61973978E+00
  1.90857237E+00  4.96730388E+00  6.21550579E+00 -5.06595892E-01  4.15675310E+00
  4.61450524E+00 -3.83464361E+00 -6.17634310E-01 -3.11511716E+00 -3.17515376E+00
  8.36498612E-01 -4.38535138E+00 -5.84539536E+00 -8.36778291E-01 -3.39783152E+00
 -2.48878255E+00 -2.88152055E+00 -3.87179185E+00 -3.28808757E+00 -4.41116504E+00
 -3.26703224E+00 -4.43543668E+00 -9.70192956E-01  9.46380517E-01  1.02455546E+01
 -3.24987542E-01 -6.52187575E+00  9.55517154E+00 -1.74506760E+00 -7.56412585E+00
  1.20379958E+01  1.59598710E-01 -6.90992912E+00
Int Atom Types                             I   N=          36
           0           0           0           0           0           0
           0           0           0           0           0           0
           0           0           0           0           0           0
           0           0           0           0           0           0
           0           0           0           0           0           0
           0           0           0           0           0           0
Force Field                                I                0
MM charges                                 R   N=          36
  0.00000000E+00  0.00000000E+00  0.00000000E+00  0.00000000E+00  0.00000000E+00
  0.00000000E+00  0.00000000E+00  0.00000000E+00  0.00000000E+00  0.00000000E+00
  0.00000000E+00  0.00000000E+00  0.00000000E+00  0.00000000E+00  0.00000000E+00
  0.00000000E+00  0.00000000E+00  0.00000000E+00  0.00000000E+00  0.00000000E+00
  0.00000000E+00  0.00000000E+00  0.00000000E+00  0.00000000E+00  0.00000000E+00
  0.00000000E+00  0.00000000E+00  0.00000000E+00  0.00000000E+00  0.00000000E+00
  0.00000000E+00  0.00000000E+00  0.00000000E+00  0.00000000E+00  0.00000000E+00
  0.00000000E+00
Integer atomic weights                     I   N=          36
          12          16          12          12          12           1
           1           1          16           1           1          12
          12          12           1          12          12           1
           1           1          14          14          14          14
          16           1           1          12           1           1
          16           1           1          14           1           1
Real atomic weights                        R   N=          36
  1.20000000E+01  1.59949146E+01  1.20000000E+01  1.20000000E+01  1.20000000E+01
  1.00782504E+00  1.00782504E+00  1.00782504E+00  1.59949146E+01  1.00782504E+00
  1.00782504E+00  1.20000000E+01  1.20000000E+01  1.20000000E+01  1.00782504E+00
  1.20000000E+01  1.20000000E+01  1.00782504E+00  1.00782504E+00  1.00782504E+00
  1.40030740E+01  1.40030740E+01  1.40030740E+01  1.40030740E+01  1.59949146E+01
  1.00782504E+00  1.00782504E+00  1.20000000E+01  1.00782504E+00  1.00782504E+00
  1.59949146E+01  1.00782504E+00  1.00782504E+00  1.40030740E+01  1.00782504E+00
  1.00782504E+00
Atom residue info                          I   N=          36
           0           0           0           0           0           0
           0           0           0           0           0           0
           0           0           0           0           0           0
           0           0           0           0           0           0
           0           0           0           0           0           0
           0           0           0           0           0           0
Atom fragment info                         I   N=          36
           0           0           0           0           0           0
           0           0           0           0           0           0
           0           0           0           0           0           0
           0           0           0           0           0           0
           0           0           0           0           0           0
           0           0           0           0           0           0
Atom residue num                           I   N=          36
           0           0           0           0           0           0
           0           0           0           0           0           0
           0           0           0           0           0           0
           0           0           0           0           0           0
           0           0           0           0           0           0
           0           0           0           0           0           0
Nuclear spins                              I   N=          36
           0           0           0           0           0           1
           1           1           0           1           1           0
           0           0           1           0           0           1
           1           1           2           2           2           2
           0           1           1           0           1           1
           0           1           1           2           1           1
Nuclear ZEff                               R   N=          36
 -3.60000000E+00 -5.60000000E+00 -3.60000000E+00 -3.60000000E+00 -3.60000000E+00
 -1.00000000E+00 -1.00000000E+00 -1.00000000E+00 -5.60000000E+00 -1.00000000E+00
 -1.00000000E+00 -3.60000000E+00 -3.60000000E+00 -3.60000000E+00 -1.00000000E+00
 -3.60000000E+00 -3.60000000E+00 -1.00000000E+00 -1.00000000E+00 -1.00000000E+00
 -4.55000000E+00 -4.55000000E+00 -4.55000000E+00 -4.55000000E+00 -5.60000000E+00
 -1.00000000E+00 -1.00000000E+00 -3.60000000E+00 -1.00000000E+00 -1.00000000E+00
 -5.60000000E+00 -1.00000000E+00 -1.00000000E+00 -4.55000000E+00 -1.00000000E+00
 -1.00000000E+00
Nuclear QMom                               R   N=          36
  0.00000000E+00  0.00000000E+00  0.00000000E+00  0.00000000E+00  0.00000000E+00
  0.00000000E+00  0.00000000E+00  0.00000000E+00  0.00000000E+00  0.00000000E+00
  0.00000000E+00  0.00000000E+00  0.00000000E+00  0.00000000E+00  0.00000000E+00
  0.00000000E+00  0.00000000E+00  0.00000000E+00  0.00000000E+00  0.00000000E+00
  2.04400000E+00  2.04400000E+00  2.04400000E+00  2.04400000E+00  0.00000000E+00
  0.00000000E+00  0.00000000E+00  0.00000000E+00  0.00000000E+00  0.00000000E+00
  0.00000000E+00  0.00000000E+00  0.00000000E+00  2.04400000E+00  0.00000000E+00
  0.00000000E+00
Nuclear GFac                               R   N=          36
  0.00000000E+00  0.00000000E+00  0.00000000E+00  0.00000000E+00  0.00000000E+00
  2.79284600E+00  2.79284600E+00  2.79284600E+00  0.00000000E+00  2.79284600E+00
  2.79284600E+00  0.00000000E+00  0.00000000E+00  0.00000000E+00  2.79284600E+00
  0.00000000E+00  0.00000000E+00  2.79284600E+00  2.79284600E+00  2.79284600E+00
  4.03761000E-01  4.03761000E-01  4.03761000E-01  4.03761000E-01  0.00000000E+00
  2.79284600E+00  2.79284600E+00  0.00000000E+00  2.79284600E+00  2.79284600E+00
  0.00000000E+00  2.79284600E+00  2.79284600E+00  4.03761000E-01  2.79284600E+00
  2.79284600E+00
MicOpt                                     I   N=          36
          -1          -1          -1          -1          -1          -1
          -1          -1          -1          -1          -1          -1
          -1          -1          -1          -1          -1          -1
          -1          -1          -1          -1          -1          -1
          -1          -1          -1          -1          -1          -1
          -1          -1          -1          -1          -1          -1
Constraint Structure                       R   N=         108
 -3.26049001E+00  5.84114348E-02 -3.58804191E-01 -6.54920497E-01 -6.44037564E-01
  2.21084730E-01  9.71064120E-01  1.48152639E+00  1.13321207E-01 -6.47508991E-01
  3.76099531E+00 -6.86044286E-01 -3.31615189E+00  2.92328728E+00  1.14969048E-01
 -7.65074523E-02  5.41843820E+00  3.46239402E-01 -5.61484878E-01  4.09334523E+00
 -2.69844388E+00 -4.78828634E+00  3.88507473E+00 -9.22628549E-01 -3.47629106E+00
  3.41029049E+00  2.78648622E+00 -5.18021554E+00  3.30706798E+00  3.44067162E+00
  1.94817536E+00  1.82311518E+00  1.86018027E+00  5.28573785E+00  1.64028417E+00
 -2.18911167E+00  2.51632719E+00 -1.15800717E+00 -3.50496766E+00  6.40957688E+00
  2.69097001E-01 -4.08702976E+00  7.40215175E-01 -2.18742792E+00 -3.67000689E+00
  8.91287630E+00  8.15550997E-01 -4.76687008E+00  8.68688395E+00  4.02878462E+00
 -1.51959303E+00  4.75823214E+00 -2.78515208E+00 -6.24060324E+00  9.72063029E+00
  5.49238129E+00 -5.93124562E-01  1.17393529E+01  3.25135885E+00 -3.75892795E+00
  2.89602042E+00  7.33200512E-01 -1.87881674E+00  4.59600293E+00 -1.47610855E+00
 -4.88246651E+00  6.39441750E+00  3.52128166E+00 -8.99908372E-01  9.94472157E+00
  2.72960547E+00 -3.40074926E+00  1.32366812E+00  4.30755891E+00  4.61973978E+00
  1.90857237E+00  4.96730388E+00  6.21550579E+00 -5.06595892E-01  4.15675310E+00
  4.61450524E+00 -3.83464361E+00 -6.17634310E-01 -3.11511716E+00 -3.17515376E+00
  8.36498612E-01 -4.38535138E+00 -5.84539536E+00 -8.36778291E-01 -3.39783152E+00
 -2.48878255E+00 -2.88152055E+00 -3.87179185E+00 -3.28808757E+00 -4.41116504E+00
 -3.26703224E+00 -4.43543668E+00 -9.70192956E-01  9.46380517E-01  1.02455546E+01
 -3.24987542E-01 -6.52187575E+00  9.55517154E+00 -1.74506760E+00 -7.56412585E+00
  1.20379958E+01  1.59598710E-01 -6.90992912E+00
ONIOM Charges                              I   N=          16
           2           0           0           0           0           0
           0           0           0           0           0           0
           0           0           0           0
ONIOM Multiplicities                       I   N=          16
           1           0           0           0           0           0
           0           0           0           0           0           0
           0           0           0           0
Atom Layers                                I   N=          36
           1           1           1           1           1           1
           1           1           1           1           1           1
           1           1           1           1           1           1
           1           1           1           1           1           1
           1           1           1           1           1           1
           1           1           1           1           1           1
Atom Modifiers                             I   N=          36
           0           0           0           0           0           0
           0           0           0           0           0           0
           0           0           0           0           0           0
           0           0           0           0           0           0
           0           0           0           0           0           0
           0           0           0           0           0           0
Int Atom Modified Types                    I   N=          36
           0           0           0           0           0           0
           0           0           0           0           0           0
           0           0           0           0           0           0
           0           0           0           0           0           0
           0           0           0           0           0           0
           0           0           0           0           0           0
Link Atoms                                 I   N=          36
           0           0           0           0           0           0
           0           0           0           0           0           0
           0           0           0           0           0           0
           0           0           0           0           0           0
           0           0           0           0           0           0
           0           0           0           0           0           0
Atom Modified MM Charges                   R   N=          36
  0.00000000E+00  0.00000000E+00  0.00000000E+00  0.00000000E+00  0.00000000E+00
  0.00000000E+00  0.00000000E+00  0.00000000E+00  0.00000000E+00  0.00000000E+00
  0.00000000E+00  0.00000000E+00  0.00000000E+00  0.00000000E+00  0.00000000E+00
  0.00000000E+00  0.00000000E+00  0.00000000E+00  0.00000000E+00  0.00000000E+00
  0.00000000E+00  0.00000000E+00  0.00000000E+00  0.00000000E+00  0.00000000E+00
  0.00000000E+00  0.00000000E+00  0.00000000E+00  0.00000000E+00  0.00000000E+00
  0.00000000E+00  0.00000000E+00  0.00000000E+00  0.00000000E+00  0.00000000E+00
  0.00000000E+00
Link Distances                             R   N=         144
  0.00000000E+00  0.00000000E+00  0.00000000E+00  0.00000000E+00  0.00000000E+00
  0.00000000E+00  0.00000000E+00  0.00000000E+00  0.00000000E+00  0.00000000E+00
  0.00000000E+00  0.00000000E+00  0.00000000E+00  0.00000000E+00  0.00000000E+00
  0.00000000E+00  0.00000000E+00  0.00000000E+00  0.00000000E+00  0.00000000E+00
  0.00000000E+00  0.00000000E+00  0.00000000E+00  0.00000000E+00  0.00000000E+00
  0.00000000E+00  0.00000000E+00  0.00000000E+00  0.00000000E+00  0.00000000E+00
  0.00000000E+00  0.00000000E+00  0.00000000E+00  0.00000000E+00  0.00000000E+00
  0.00000000E+00  0.00000000E+00  0.00000000E+00  0.00000000E+00  0.00000000E+00
  0.00000000E+00  0.00000000E+00  0.00000000E+00  0.00000000E+00  0.00000000E+00
  0.00000000E+00  0.00000000E+00  0.00000000E+00  0.00000000E+00  0.00000000E+00
  0.00000000E+00  0.00000000E+00  0.00000000E+00  0.00000000E+00  0.00000000E+00
  0.00000000E+00  0.00000000E+00  0.00000000E+00  0.00000000E+00  0.00000000E+00
  0.00000000E+00  0.00000000E+00  0.00000000E+00  0.00000000E+00  0.00000000E+00
  0.00000000E+00  0.00000000E+00  0.00000000E+00  0.00000000E+00  0.00000000E+00
  0.00000000E+00  0.00000000E+00  0.00000000E+00  0.00000000E+00  0.00000000E+00
  0.00000000E+00  0.00000000E+00  0.00000000E+00  0.00000000E+00  0.00000000E+00
  0.00000000E+00  0.00000000E+00  0.00000000E+00  0.00000000E+00  0.00000000E+00
  0.00000000E+00  0.00000000E+00  0.00000000E+00  0.00000000E+00  0.00000000E+00
  0.00000000E+00  0.00000000E+00  0.00000000E+00  0.00000000E+00  0.00000000E+00
  0.00000000E+00  0.00000000E+00  0.00000000E+00  0.00000000E+00  0.00000000E+00
  0.00000000E+00  0.00000000E+00  0.00000000E+00  0.00000000E+00  0.00000000E+00
  0.00000000E+00  0.00000000E+00  0.00000000E+00  0.00000000E+00  0.00000000E+00
  0.00000000E+00  0.00000000E+00  0.00000000E+00  0.00000000E+00  0.00000000E+00
  0.00000000E+00  0.00000000E+00  0.00000000E+00  0.00000000E+00  0.00000000E+00
  0.00000000E+00  0.00000000E+00  0.00000000E+00  0.00000000E+00  0.00000000E+00
  0.00000000E+00  0.00000000E+00  0.00000000E+00  0.00000000E+00  0.00000000E+00
  0.00000000E+00  0.00000000E+00  0.00000000E+00  0.00000000E+00  0.00000000E+00
  0.00000000E+00  0.00000000E+00  0.00000000E+00  0.00000000E+00  0.00000000E+00
  0.00000000E+00  0.00000000E+00  0.00000000E+00  0.00000000E+00
MxBond                                     I                4
NBond                                      I   N=          36
           4           2           4           4           4           1
           1           1           2           1           1           3
           3           3           1           3           3           1
           1           1           3           3           2           3
           2           1           1           4           1           1
           2           1           1           3           1           1
IBond                                      I   N=         144
           2           5          28          33           1           3
           0           0           2           4          11          21
           3           5           6           7           1           4
           8           9           4           0           0           0
           4           0           0           0           5           0
           0           0           5          10           0           0
           9           0           0           0           3           0
           0           0          14          21          23           0
          15          21          22           0          12          16
          22           0          13           0           0           0
          14          24          34           0          19          23
          24           0          22           0           0           0
          17           0           0           0          24           0
           0           0           3          12          13           0
          13          14          18           0          12          17
           0           0          16          17          20           0
          26          27           0           0          25           0
           0           0          25           0           0           0
           1          29          30          31          28           0
           0           0          28           0           0           0
          28          32           0           0          31           0
           0           0           1           0           0           0
          16          35          36           0          34           0
           0           0          34           0           0           0
RBond                                      R   N=         144
  1.00000000E+00  1.00000000E+00  1.00000000E+00  1.00000000E+00  1.00000000E+00
  1.00000000E+00  0.00000000E+00  0.00000000E+00  1.00000000E+00  1.00000000E+00
  1.00000000E+00  1.00000000E+00  1.00000000E+00  1.00000000E+00  1.00000000E+00
  1.00000000E+00  1.00000000E+00  1.00000000E+00  1.00000000E+00  1.00000000E+00
  1.00000000E+00  0.00000000E+00  0.00000000E+00  0.00000000E+00  1.00000000E+00
  0.00000000E+00  0.00000000E+00  0.00000000E+00  1.00000000E+00  0.00000000E+00
  0.00000000E+00  0.00000000E+00  1.00000000E+00  1.00000000E+00  0.00000000E+00
  0.00000000E+00  1.00000000E+00  0.00000000E+00  0.00000000E+00  0.00000000E+00
  1.00000000E+00  0.00000000E+00  0.00000000E+00  0.00000000E+00  1.50000000E+00
  1.50000000E+00  1.50000000E+00  0.00000000E+00  1.00000000E+00  1.50000000E+00
  1.50000000E+00  0.00000000E+00  1.50000000E+00  1.50000000E+00  1.00000000E+00
  0.00000000E+00  1.00000000E+00  0.00000000E+00  0.00000000E+00  0.00000000E+00
  1.50000000E+00  1.50000000E+00  1.50000000E+00  0.00000000E+00  1.00000000E+00
  2.00000000E+00  1.00000000E+00  0.00000000E+00  1.00000000E+00  0.00000000E+00
  0.00000000E+00  0.00000000E+00  1.00000000E+00  0.00000000E+00  0.00000000E+00
  0.00000000E+00  1.00000000E+00  0.00000000E+00  0.00000000E+00  0.00000000E+00
  1.00000000E+00  1.50000000E+00  1.50000000E+00  0.00000000E+00  1.50000000E+00
  1.00000000E+00  1.00000000E+00  0.00000000E+00  1.50000000E+00  2.00000000E+00
  0.00000000E+00  0.00000000E+00  1.50000000E+00  1.00000000E+00  1.00000000E+00
  0.00000000E+00  1.00000000E+00  1.00000000E+00  0.00000000E+00  0.00000000E+00
  1.00000000E+00  0.00000000E+00  0.00000000E+00  0.00000000E+00  1.00000000E+00
  0.00000000E+00  0.00000000E+00  0.00000000E+00  1.00000000E+00  1.00000000E+00
  1.00000000E+00  1.00000000E+00  1.00000000E+00  0.00000000E+00  0.00000000E+00
  0.00000000E+00  1.00000000E+00  0.00000000E+00  0.00000000E+00  0.00000000E+00
  1.00000000E+00  1.00000000E+00  0.00000000E+00  0.00000000E+00  1.00000000E+00
  0.00000000E+00  0.00000000E+00  0.00000000E+00  1.00000000E+00  0.00000000E+00
  0.00000000E+00  0.00000000E+00  1.50000000E+00  1.00000000E+00  1.00000000E+00
  0.00000000E+00  1.00000000E+00  0.00000000E+00  0.00000000E+00  0.00000000E+00
  1.00000000E+00  0.00000000E+00  0.00000000E+00  0.00000000E+00
Shell types                                I   N=          91
           0          -1          -1           0          -1          -1
           0          -1          -1           0          -1          -1
           0          -1          -1           0           0           0
           0           0           0           0          -1          -1
           0           0           0           0           0          -1
          -1           0          -1          -1           0          -1
          -1           0           0           0          -1          -1
           0          -1          -1           0           0           0
           0           0           0           0          -1          -1
           0          -1          -1           0          -1          -1
           0          -1          -1           0          -1          -1
           0           0           0           0           0          -1
          -1           0           0           0           0           0
          -1          -1           0           0           0           0
           0          -1          -1           0           0           0
           0
Number of primitives per shell             I   N=          91
           3           2           1           3           2           1
           3           2           1           3           2           1
           3           2           1           2           1           2
           1           2           1           3           2           1
           2           1           2           1           3           2
           1           3           2           1           3           2
           1           2           1           3           2           1
           3           2           1           2           1           2
           1           2           1           3           2           1
           3           2           1           3           2           1
           3           2           1           3           2           1
           2           1           2           1           3           2
           1           2           1           2           1           3
           2           1           2           1           2           1
           3           2           1           2           1           2
           1
Shell to atom map                          I   N=          91
           1           1           1           2           2           2
           3           3           3           4           4           4
           5           5           5           6           6           7
           7           8           8           9           9           9
          10          10          11          11          12          12
          12          13          13          13          14          14
          14          15          15          16          16          16
          17          17          17          18          18          19
          19          20          20          21          21          21
          22          22          22          23          23          23
          24          24          24          25          25          25
          26          26          27          27          28          28
          28          29          29          30          30          31
          31          31          32          32          33          33
          34          34          34          35          35          36
          36
Primitive exponents                        R   N=         165
  1.72256000E+02  2.59109000E+01  5.53335000E+00  3.66498000E+00  7.70545000E-01
  1.95857000E-01  3.22037000E+02  4.84308000E+01  1.04206000E+01  7.40294000E+00
  1.57620000E+00  3.73684000E-01  1.72256000E+02  2.59109000E+01  5.53335000E+00
  3.66498000E+00  7.70545000E-01  1.95857000E-01  1.72256000E+02  2.59109000E+01
  5.53335000E+00  3.66498000E+00  7.70545000E-01  1.95857000E-01  1.72256000E+02
  2.59109000E+01  5.53335000E+00  3.66498000E+00  7.70545000E-01  1.95857000E-01
  5.44717800E+00  8.24547240E-01  1.83191580E-01  5.44717800E+00  8.24547240E-01
  1.83191580E-01  5.44717800E+00  8.24547240E-01  1.83191580E-01  3.22037000E+02
  4.84308000E+01  1.04206000E+01  7.40294000E+00  1.57620000E+00  3.73684000E-01
  5.44717800E+00  8.24547240E-01  1.83191580E-01  5.44717800E+00  8.24547240E-01
  1.83191580E-01  1.72256000E+02  2.59109000E+01  5.53335000E+00  3.66498000E+00
  7.70545000E-01  1.95857000E-01  1.72256000E+02  2.59109000E+01  5.53335000E+00
  3.66498000E+00  7.70545000E-01  1.95857000E-01  1.72256000E+02  2.59109000E+01
  5.53335000E+00  3.66498000E+00  7.70545000E-01  1.95857000E-01  5.44717800E+00
  8.24547240E-01  1.83191580E-01  1.72256000E+02  2.59109000E+01  5.53335000E+00
  3.66498000E+00  7.70545000E-01  1.95857000E-01  1.72256000E+02  2.59109000E+01
  5.53335000E+00  3.66498000E+00  7.70545000E-01  1.95857000E-01  5.44717800E+00
  8.24547240E-01  1.83191580E-01  5.44717800E+00  8.24547240E-01  1.83191580E-01