comment                                                                 
Freq      RHF                                                         3-21G*              
Number of atoms                            I               36
Charge                                     I                2
Multiplicity                               I                1
Number of electrons                        I              142
Number of alpha electrons                  I               71
Number of beta electrons                   I               71
Number of basis functions                  I              205
Number of independant functions            I              205
Number of point charges in /Mol/           I                0
Number of translation vectors              I                0
Info1-9                                    I   N=           9
          47          44           0           0           1         100
           6           1           2
Num ILSW                                   I              100
ILSW                                       I   N=         100
           0           1           0           0           2           0
           0           0           0           0           0     1000000
           0           0           0           0           0           0
           0     1000000           1           0           1           0
           1           1           0           0     1000000           0
           0           0      100000           0          -1           0
           0           0           0           0           0           0
           0           0           0           1           0           0
           0           0           1     1000000     1000000           0
           0           0           0           0           0           0
           0           0           0           0           0           0
           0           0           0           0           0           0
           0           0           0           0           0           0
           0           0           0           0           0           0
           0           0           0           0           0           0
           0           0           0           0           0           0
           0           0           0           0
Number of contracted shells                I               91
Highest angular momentum                   I                1
Largest degree of contraction              I                3
Number of primitive shells                 I              165
Pure/Cartesian d shells                    I                1
Pure/Cartesian f shells                    I                0
Virial Ratio                               R      2.002446168059607E+00
SCF Energy                                 R     -9.544122047660631E+02
Total Energy                               R     -9.544122047660631E+02
RMS Force                                  R      4.915049945804222E-07
RMS Density                                R      6.948302969531969E-09
Atomic numbers                             I   N=          36
           6           8           6           6           6           1
           1           1           8           1           1           6
           6           6           1           6           6           1
           1           1           7           7           7           7
           8           1           1           6           1           1
           8           1           1           7           1           1
Nuclear charges                            R   N=          36
  6.00000000E+00  8.00000000E+00  6.00000000E+00  6.00000000E+00  6.00000000E+00
  1.00000000E+00  1.00000000E+00  1.00000000E+00  8.00000000E+00  1.00000000E+00
  1.00000000E+00  6.00000000E+00  6.00000000E+00  6.00000000E+00  1.00000000E+00
  6.00000000E+00  6.00000000E+00  1.00000000E+00  1.00000000E+00  1.00000000E+00
  7.00000000E+00  7.00000000E+00  7.00000000E+00  7.00000000E+00  8.00000000E+00
  1.00000000E+00  1.00000000E+00  6.00000000E+00  1.00000000E+00  1.00000000E+00
  8.00000000E+00  1.00000000E+00  1.00000000E+00  7.00000000E+00  1.00000000E+00
  1.00000000E+00
Current cartesian coordinates              R   N=         108
 -3.21608777E+00  3.93452546E-01 -2.03049055E-01 -6.79139831E-01 -2.72642894E-01
  8.17501700E-01  8.27856507E-01  1.69372634E+00  9.32115866E-01 -4.86818886E-01
  4.07965755E+00  8.71669040E-02 -3.30969752E+00  3.29257106E+00  7.32813791E-02
 -1.73475070E-01  5.55715041E+00  1.44787506E+00  1.55735826E-01  4.65122318E+00
 -1.75770693E+00 -4.33242824E+00  4.17216679E+00 -1.45802336E+00 -4.36855378E+00
  3.95760057E+00  2.48336065E+00 -6.11905716E+00  4.47634051E+00  2.40805115E+00
  2.42705811E+00  1.62229316E+00  2.12569837E+00  5.47123895E+00  1.74773469E+00
 -2.61740844E+00  2.88039041E+00 -1.33486764E+00 -3.29575753E+00  6.63890759E+00
  1.50340370E-01 -4.32056330E+00  1.20494846E+00 -2.48611578E+00 -3.24388695E+00
  9.06123921E+00  7.24082960E-01 -5.20668496E+00  8.74867861E+00  4.41857368E+00
 -2.53411734E+00  5.12002600E+00 -3.30995823E+00 -5.85145953E+00  9.72751825E+00
  6.07359081E+00 -1.92502313E+00  1.17549330E+01  3.45857372E+00 -4.77326751E+00
  3.15711372E+00  8.02837598E-01 -2.01619235E+00  4.93018456E+00 -1.80363725E+00
 -4.72531125E+00  6.52953455E+00  3.89273925E+00 -1.71904019E+00  1.00189088E+01
  2.89807266E+00 -4.23949757E+00 -2.34049823E-01  3.00196687E+00  5.16838477E+00
  1.67147355E-01  2.60706250E+00  6.90285793E+00 -1.99599066E+00  3.48524773E+00
  4.99183882E+00 -3.36233321E+00 -4.83627366E-01 -2.94043806E+00 -2.26422648E+00
  7.46349746E-01 -4.14227701E+00 -5.30510252E+00 -4.22539101E-01 -3.57326215E+00
 -2.28189628E+00 -2.96033370E+00 -3.25430453E+00 -3.39385898E+00 -4.30760278E+00
 -2.71447473E+00 -4.54196327E+00 -5.41806025E-01  1.01908336E+00  1.04010706E+01
 -6.18037382E-01 -6.81767099E+00  9.76069657E+00 -2.23101226E+00 -7.56707975E+00
  1.21367373E+01 -9.84457386E-02 -7.37278323E+00
Int Atom Types                             I   N=          36
           0           0           0           0           0           0
           0           0           0           0           0           0
           0           0           0           0           0           0
           0           0           0           0           0           0
           0           0           0           0           0           0
           0           0           0           0           0           0
Force Field                                I                0
MM charges                                 R   N=          36
  0.00000000E+00  0.00000000E+00  0.00000000E+00  0.00000000E+00  0.00000000E+00
  0.00000000E+00  0.00000000E+00  0.00000000E+00  0.00000000E+00  0.00000000E+00
  0.00000000E+00  0.00000000E+00  0.00000000E+00  0.00000000E+00  0.00000000E+00
  0.00000000E+00  0.00000000E+00  0.00000000E+00  0.00000000E+00  0.00000000E+00
  0.00000000E+00  0.00000000E+00  0.00000000E+00  0.00000000E+00  0.00000000E+00
  0.00000000E+00  0.00000000E+00  0.00000000E+00  0.00000000E+00  0.00000000E+00
  0.00000000E+00  0.00000000E+00  0.00000000E+00  0.00000000E+00  0.00000000E+00
  0.00000000E+00
Integer atomic weights                     I   N=          36
          12          16          12          12          12           1
           1           1          16           1           1          12
          12          12           1          12          12           1
           1           1          14          14          14          14
          16           1           1          12           1           1
          16           1           1          14           1           1
Real atomic weights                        R   N=          36
  1.20000000E+01  1.59949146E+01  1.20000000E+01  1.20000000E+01  1.20000000E+01
  1.00782504E+00  1.00782504E+00  1.00782504E+00  1.59949146E+01  1.00782504E+00
  1.00782504E+00  1.20000000E+01  1.20000000E+01  1.20000000E+01  1.00782504E+00
  1.20000000E+01  1.20000000E+01  1.00782504E+00  1.00782504E+00  1.00782504E+00
  1.40030740E+01  1.40030740E+01  1.40030740E+01  1.40030740E+01  1.59949146E+01
  1.00782504E+00  1.00782504E+00  1.20000000E+01  1.00782504E+00  1.00782504E+00
  1.59949146E+01  1.00782504E+00  1.00782504E+00  1.40030740E+01  1.00782504E+00
  1.00782504E+00
Atom residue info                          I   N=          36
           0           0           0           0           0           0
           0           0           0           0           0           0
           0           0           0           0           0           0
           0           0           0           0           0           0
           0           0           0           0           0           0
           0           0           0           0           0           0
Atom fragment info                         I   N=          36
           0           0           0           0           0           0
           0           0           0           0           0           0
           0           0           0           0           0           0
           0           0           0           0           0           0
           0           0           0           0           0           0
           0           0           0           0           0           0
Atom residue num                           I   N=          36
           0           0           0           0           0           0
           0           0           0           0           0           0
           0           0           0           0           0           0
           0           0           0           0           0           0
           0           0           0           0           0           0
           0           0           0           0           0           0
Nuclear spins                              I   N=          36
           0           0           0           0           0           1
           1           1           0           1           1           0
           0           0           1           0           0           1
           1           1           2           2           2           2
           0           1           1           0           1           1
           0           1           1           2           1           1
Nuclear ZEff                               R   N=          36
 -3.60000000E+00 -5.60000000E+00 -3.60000000E+00 -3.60000000E+00 -3.60000000E+00
 -1.00000000E+00 -1.00000000E+00 -1.00000000E+00 -5.60000000E+00 -1.00000000E+00
 -1.00000000E+00 -3.60000000E+00 -3.60000000E+00 -3.60000000E+00 -1.00000000E+00
 -3.60000000E+00 -3.60000000E+00 -1.00000000E+00 -1.00000000E+00 -1.00000000E+00
 -4.55000000E+00 -4.55000000E+00 -4.55000000E+00 -4.55000000E+00 -5.60000000E+00
 -1.00000000E+00 -1.00000000E+00 -3.60000000E+00 -1.00000000E+00 -1.00000000E+00
 -5.60000000E+00 -1.00000000E+00 -1.00000000E+00 -4.55000000E+00 -1.00000000E+00
 -1.00000000E+00
Nuclear QMom                               R   N=          36
  0.00000000E+00  0.00000000E+00  0.00000000E+00  0.00000000E+00  0.00000000E+00
  0.00000000E+00  0.00000000E+00  0.00000000E+00  0.00000000E+00  0.00000000E+00
  0.00000000E+00  0.00000000E+00  0.00000000E+00  0.00000000E+00  0.00000000E+00
  0.00000000E+00  0.00000000E+00  0.00000000E+00  0.00000000E+00  0.00000000E+00
  2.04400000E+00  2.04400000E+00  2.04400000E+00  2.04400000E+00  0.00000000E+00
  0.00000000E+00  0.00000000E+00  0.00000000E+00  0.00000000E+00  0.00000000E+00
  0.00000000E+00  0.00000000E+00  0.00000000E+00  2.04400000E+00  0.00000000E+00
  0.00000000E+00
Nuclear GFac                               R   N=          36
  0.00000000E+00  0.00000000E+00  0.00000000E+00  0.00000000E+00  0.00000000E+00
  2.79284600E+00  2.79284600E+00  2.79284600E+00  0.00000000E+00  2.79284600E+00
  2.79284600E+00  0.00000000E+00  0.00000000E+00  0.00000000E+00  2.79284600E+00
  0.00000000E+00  0.00000000E+00  2.79284600E+00  2.79284600E+00  2.79284600E+00
  4.03761000E-01  4.03761000E-01  4.03761000E-01  4.03761000E-01  0.00000000E+00
  2.79284600E+00  2.79284600E+00  0.00000000E+00  2.79284600E+00  2.79284600E+00
  0.00000000E+00  2.79284600E+00  2.79284600E+00  4.03761000E-01  2.79284600E+00
  2.79284600E+00
MicOpt                                     I   N=          36
          -1          -1          -1          -1          -1          -1
          -1          -1          -1          -1          -1          -1
          -1          -1          -1          -1          -1          -1
          -1          -1          -1          -1          -1          -1
          -1          -1          -1          -1          -1          -1
          -1          -1          -1          -1          -1          -1
Constraint Structure                       R   N=         108
 -3.21585090E+00  3.78606631E-01 -2.20553717E-01 -6.80626441E-01 -2.89642104E-01
  7.94537243E-01  8.42105429E-01  1.67714706E+00  8.79650508E-01 -4.85534894E-01
  4.06447210E+00  4.87908391E-02 -3.30790702E+00  3.27610293E+00  6.40560468E-02
 -1.61940081E-01  5.53546516E+00  1.41453371E+00  1.34909438E-01  4.64725797E+00
 -1.80006997E+00 -4.34956186E+00  4.16131490E+00 -1.45128321E+00 -4.33241070E+00
  3.93630521E+00  2.49015449E+00 -6.09973738E+00  4.39913504E+00  2.44686275E+00
  2.40429289E+00  1.62596383E+00  2.12447547E+00  5.46032776E+00  1.73854993E+00
 -2.59832241E+00  2.86186173E+00 -1.33728171E+00 -3.30421260E+00  6.62444630E+00
  1.52053034E-01 -4.31283125E+00  1.18188953E+00 -2.48454578E+00 -3.26061662E+00
  9.04975862E+00  7.27682512E-01 -5.19156146E+00  8.74215466E+00  4.40104744E+00
 -2.48883168E+00  5.09973778E+00 -3.29348652E+00 -5.87278505E+00  9.72342709E+00
  6.04899068E+00 -1.86459278E+00  1.17488488E+01  3.45269027E+00 -4.73169849E+00
  3.14426996E+00  7.90916527E-01 -2.00980311E+00  4.91138121E+00 -1.79574816E+00
 -4.73463135E+00  6.52038475E+00  3.87327717E+00 -1.68088116E+00  1.00106711E+01
  2.89172507E+00 -4.20489765E+00 -1.61303243E-01  3.07248682E+00  5.19327355E+00
  2.51690734E-01  2.77817332E+00  6.94468874E+00 -1.93221852E+00  3.51273254E+00
  5.00102037E+00 -3.37234479E+00 -4.89004432E-01 -2.96054512E+00 -2.28340144E+00
  7.47297869E-01 -4.16453499E+00 -5.31768934E+00 -4.32293750E-01 -3.58556070E+00
 -2.28637209E+00 -2.96265216E+00 -3.28803844E+00 -3.38989278E+00 -4.31418429E+00
 -2.74147861E+00 -4.54035050E+00 -5.60732767E-01  1.00025850E+00  1.03883178E+01
 -6.03888442E-01 -6.81146116E+00  9.74582979E+00 -2.20943756E+00 -7.57518453E+00
  1.21260816E+01 -8.37677801E-02 -7.35999007E+00
ONIOM Charges                              I   N=          16
           2           0           0           0           0           0
           0           0           0           0           0           0
           0           0           0           0
ONIOM Multiplicities                       I   N=          16
           1           0           0           0           0           0
           0           0           0           0           0           0
           0           0           0           0
Atom Layers                                I   N=          36
           1           1           1           1           1           1
           1           1           1           1           1           1
           1           1           1           1           1           1
           1           1           1           1           1           1
           1           1           1           1           1           1
           1           1           1           1           1           1
Atom Modifiers                             I   N=          36
           0           0           0           0           0           0
           0           0           0           0           0           0
           0           0           0           0           0           0
           0           0           0           0           0           0
           0           0           0           0           0           0
           0           0           0           0           0           0
Int Atom Modified Types                    I   N=          36
           0           0           0           0           0           0
           0           0           0           0           0           0
           0           0           0           0           0           0
           0           0           0           0           0           0
           0           0           0           0           0           0
           0           0           0           0           0           0
Link Atoms                                 I   N=          36
           0           0           0           0           0           0
           0           0           0           0           0           0
           0           0           0           0           0           0
           0           0           0           0           0           0
           0           0           0           0           0           0
           0           0           0           0           0           0
Atom Modified MM Charges                   R   N=          36
  0.00000000E+00  0.00000000E+00  0.00000000E+00  0.00000000E+00  0.00000000E+00
  0.00000000E+00  0.00000000E+00  0.00000000E+00  0.00000000E+00  0.00000000E+00
  0.00000000E+00  0.00000000E+00  0.00000000E+00  0.00000000E+00  0.00000000E+00
  0.00000000E+00  0.00000000E+00  0.00000000E+00  0.00000000E+00  0.00000000E+00
  0.00000000E+00  0.00000000E+00  0.00000000E+00  0.00000000E+00  0.00000000E+00
  0.00000000E+00  0.00000000E+00  0.00000000E+00  0.00000000E+00  0.00000000E+00
  0.00000000E+00  0.00000000E+00  0.00000000E+00  0.00000000E+00  0.00000000E+00
  0.00000000E+00
Link Distances                             R   N=         144
  0.00000000E+00  0.00000000E+00  0.00000000E+00  0.00000000E+00  0.00000000E+00
  0.00000000E+00  0.00000000E+00  0.00000000E+00  0.00000000E+00  0.00000000E+00
  0.00000000E+00  0.00000000E+00  0.00000000E+00  0.00000000E+00  0.00000000E+00
  0.00000000E+00  0.00000000E+00  0.00000000E+00  0.00000000E+00  0.00000000E+00
  0.00000000E+00  0.00000000E+00  0.00000000E+00  0.00000000E+00  0.00000000E+00
  0.00000000E+00  0.00000000E+00  0.00000000E+00  0.00000000E+00  0.00000000E+00
  0.00000000E+00  0.00000000E+00  0.00000000E+00  0.00000000E+00  0.00000000E+00
  0.00000000E+00  0.00000000E+00  0.00000000E+00  0.00000000E+00  0.00000000E+00
  0.00000000E+00  0.00000000E+00  0.00000000E+00  0.00000000E+00  0.00000000E+00
  0.00000000E+00  0.00000000E+00  0.00000000E+00  0.00000000E+00  0.00000000E+00
  0.00000000E+00  0.00000000E+00  0.00000000E+00  0.00000000E+00  0.00000000E+00
  0.00000000E+00  0.00000000E+00  0.00000000E+00  0.00000000E+00  0.00000000E+00
  0.00000000E+00  0.00000000E+00  0.00000000E+00  0.00000000E+00  0.00000000E+00
  0.00000000E+00  0.00000000E+00  0.00000000E+00  0.00000000E+00  0.00000000E+00
  0.00000000E+00  0.00000000E+00  0.00000000E+00  0.00000000E+00  0.00000000E+00
  0.00000000E+00  0.00000000E+00  0.00000000E+00  0.00000000E+00  0.00000000E+00
  0.00000000E+00  0.00000000E+00  0.00000000E+00  0.00000000E+00  0.00000000E+00
  0.00000000E+00  0.00000000E+00  0.00000000E+00  0.00000000E+00  0.00000000E+00
  0.00000000E+00  0.00000000E+00  0.00000000E+00  0.00000000E+00  0.00000000E+00
  0.00000000E+00  0.00000000E+00  0.00000000E+00  0.00000000E+00  0.00000000E+00
  0.00000000E+00  0.00000000E+00  0.00000000E+00  0.00000000E+00  0.00000000E+00
  0.00000000E+00  0.00000000E+00  0.00000000E+00  0.00000000E+00  0.00000000E+00
  0.00000000E+00  0.00000000E+00  0.00000000E+00  0.00000000E+00  0.00000000E+00
  0.00000000E+00  0.00000000E+00  0.00000000E+00  0.00000000E+00  0.00000000E+00
  0.00000000E+00  0.00000000E+00  0.00000000E+00  0.00000000E+00  0.00000000E+00
  0.00000000E+00  0.00000000E+00  0.00000000E+00  0.00000000E+00  0.00000000E+00
  0.00000000E+00  0.00000000E+00  0.00000000E+00  0.00000000E+00  0.00000000E+00
  0.00000000E+00  0.00000000E+00  0.00000000E+00  0.00000000E+00  0.00000000E+00
  0.00000000E+00  0.00000000E+00  0.00000000E+00  0.00000000E+00
MxBond                                     I                4
NBond                                      I   N=          36
           4           2           3           4           4           1
           1           1           2           1           1           3
           3           3           1           3           3           1
           1           1           2           3           2           3
           2           1           1           4           1           1
           2           1           1           3           1           1
IBond                                      I   N=         144
           2           5          28          33           1           3
           0           0           2           4          11           0
           3           5           6           7           1           4
           8           9           4           0           0           0
           4           0           0           0           5           0
           0           0           5          10           0           0
           9           0           0           0           3           0
           0           0          14          21          23           0
          15          21          22           0          12          16
          22           0          13           0           0           0
          14          24          34           0          19          23
          24           0          22           0           0           0
          17           0           0           0          24           0
           0           0          12          13           0           0
          13          14          18           0          12          17
           0           0          16          17          20           0
          26          27           0           0          25           0
           0           0          25           0           0           0
           1          29          30          31          28           0
           0           0          28           0           0           0
          28          32           0           0          31           0
           0           0           1           0           0           0
          16          35          36           0          34           0
           0           0          34           0           0           0
RBond                                      R   N=         144
  1.00000000E+00  1.00000000E+00  1.00000000E+00  1.00000000E+00  1.00000000E+00
  1.00000000E+00  0.00000000E+00  0.00000000E+00  1.00000000E+00  1.00000000E+00
  1.00000000E+00  0.00000000E+00  1.00000000E+00  1.00000000E+00  1.00000000E+00
  1.00000000E+00  1.00000000E+00  1.00000000E+00  1.00000000E+00  1.00000000E+00
  1.00000000E+00  0.00000000E+00  0.00000000E+00  0.00000000E+00  1.00000000E+00
  0.00000000E+00  0.00000000E+00  0.00000000E+00  1.00000000E+00  0.00000000E+00
  0.00000000E+00  0.00000000E+00  1.00000000E+00  1.00000000E+00  0.00000000E+00
  0.00000000E+00  1.00000000E+00  0.00000000E+00  0.00000000E+00  0.00000000E+00
  1.00000000E+00  0.00000000E+00  0.00000000E+00  0.00000000E+00  1.50000000E+00
  1.50000000E+00  1.50000000E+00  0.00000000E+00  1.00000000E+00  1.50000000E+00
  1.50000000E+00  0.00000000E+00  1.50000000E+00  1.50000000E+00  1.00000000E+00
  0.00000000E+00  1.00000000E+00  0.00000000E+00  0.00000000E+00  0.00000000E+00
  1.50000000E+00  1.50000000E+00  1.50000000E+00  0.00000000E+00  1.00000000E+00
  2.00000000E+00  1.00000000E+00  0.00000000E+00  1.00000000E+00  0.00000000E+00
  0.00000000E+00  0.00000000E+00  1.00000000E+00  0.00000000E+00  0.00000000E+00
  0.00000000E+00  1.00000000E+00  0.00000000E+00  0.00000000E+00  0.00000000E+00
  1.50000000E+00  1.50000000E+00  0.00000000E+00  0.00000000E+00  1.50000000E+00
  1.00000000E+00  1.00000000E+00  0.00000000E+00  1.50000000E+00  2.00000000E+00
  0.00000000E+00  0.00000000E+00  1.50000000E+00  1.00000000E+00  1.00000000E+00
  0.00000000E+00  1.00000000E+00  1.00000000E+00  0.00000000E+00  0.00000000E+00
  1.00000000E+00  0.00000000E+00  0.00000000E+00  0.00000000E+00  1.00000000E+00
  0.00000000E+00  0.00000000E+00  0.00000000E+00  1.00000000E+00  1.00000000E+00
  1.00000000E+00  1.00000000E+00  1.00000000E+00  0.00000000E+00  0.00000000E+00
  0.00000000E+00  1.00000000E+00  0.00000000E+00  0.00000000E+00  0.00000000E+00
  1.00000000E+00  1.00000000E+00  0.00000000E+00  0.00000000E+00  1.00000000E+00
  0.00000000E+00  0.00000000E+00  0.00000000E+00  1.00000000E+00  0.00000000E+00
  0.00000000E+00  0.00000000E+00  1.50000000E+00  1.00000000E+00  1.00000000E+00
  0.00000000E+00  1.00000000E+00  0.00000000E+00  0.00000000E+00  0.00000000E+00
  1.00000000E+00  0.00000000E+00  0.00000000E+00  0.00000000E+00
Shell types                                I   N=          91
           0          -1          -1           0          -1          -1
           0          -1          -1           0          -1          -1
           0          -1          -1           0           0           0
           0           0           0           0          -1          -1
           0           0           0           0           0          -1
          -1           0          -1          -1           0          -1
          -1           0           0           0          -1          -1
           0          -1          -1           0           0           0
           0           0           0           0          -1          -1
           0          -1          -1           0          -1          -1
           0          -1          -1           0          -1          -1
           0           0           0           0           0          -1
          -1           0           0           0           0           0
          -1          -1           0           0           0           0
           0          -1          -1           0           0           0
           0
Number of primitives per shell             I   N=          91
           3           2           1           3           2           1
           3           2           1           3           2           1
           3           2           1           2           1           2
           1           2           1           3           2           1
           2           1           2           1           3           2
           1           3           2           1           3           2
           1           2           1           3           2           1
           3           2           1           2           1           2
           1           2           1           3           2           1
           3           2           1           3           2           1
           3           2           1           3           2           1
           2           1           2           1           3           2
           1           2           1           2           1           3
           2           1           2           1           2           1
           3           2           1           2           1           2
           1
Shell to atom map                          I   N=          91
           1           1           1           2           2           2
           3           3           3           4           4           4
           5           5           5           6           6           7
           7           8           8           9           9           9
          10          10          11          11          12          12
          12          13          13          13          14          14
          14          15          15          16          16          16
          17          17          17          18          18          19
          19          20          20          21          21          21
          22          22          22          23          23          23
          24          24          24          25          25          25
          26          26          27          27          28          28
          28          29          29          30          30          31
          31          31          32          32          33          33
          34          34          34          35          35          36
          36
Primitive exponents                        R   N=         165
  1.72256000E+02  2.59109000E+01  5.53335000E+00  3.66498000E+00  7.70545000E-01
  1.95857000E-01  3.22037000E+02  4.84308000E+01  1.04206000E+01  7.40294000E+00
  1.57620000E+00  3.73684000E-01  1.72256000E+02  2.59109000E+01  5.53335000E+00
  3.66498000E+00  7.70545000E-01  1.95857000E-01  1.72256000E+02  2.59109000E+01
  5.53335000E+00  3.66498000E+00  7.70545000E-01  1.95857000E-01  1.72256000E+02
  2.59109000E+01  5.53335000E+00  3.66498000E+00  7.70545000E-01  1.95857000E-01
  5.44717800E+00  8.24547240E-01  1.83191580E-01  5.44717800E+00  8.24547240E-01
  1.83191580E-01  5.44717800E+00  8.24547240E-01  1.83191580E-01  3.22037000E+02
  4.84308000E+01  1.04206000E+01  7.40294000E+00  1.57620000E+00  3.73684000E-01
  5.44717800E+00  8.24547240E-01  1.83191580E-01  5.44717800E+00  8.24547240E-01
  1.83191580E-01  1.72256000E+02  2.59109000E+01  5.53335000E+00  3.66498000E+00
  7.70545000E-01  1.95857000E-01  1.72256000E+02  2.59109000E+01  5.53335000E+00
  3.66498000E+00  7.70545000E-01  1.95857000E-01  1.72256000E+02  2.59109000E+01
  5.53335000E+00  3.66498000E+00  7.70545000E-01  1.95857000E-01  5.44717800E+00
  8.24547240E-01  1.83191580E-01  1.72256000E+02  2.59109000E+01  5.53335000E+00
  3.66498000E+00  7.70545000E-01  1.95857000E-01  1.72256000E+02  2.59109000E+01
  5.53335000E+00  3.66498000E+00  7.70545000E-01  1.95857000E-01  5.44717800E+00
  8.24547240E-01  1.83191580E-01  5.44717800E+00  8.24547240E-01  1.83191580E-01