comment                                                                 
Freq      UHF                                                         STO-3G              
Number of atoms                            I                1
Charge                                     I                0
Multiplicity                               I                2
Number of electrons                        I                9
Number of alpha electrons                  I                5
Number of beta electrons                   I                4
Number of basis functions                  I                5
Number of independant functions            I                5
Number of point charges in /Mol/           I                0
Number of translation vectors              I                0
Info1-9                                    I   N=           9
          13           7           0           0           0         100
           6           1           2
Num ILSW                                   I              100
ILSW                                       I   N=         100
           1           0           0           0           2           0
           0           0           0           0           0     1000000
           0           0           0           0           0           0
           0     1000000           1           0           1           0
           1           0           0           0     1000000           0
           0           0      100000           0          -1           0
           0           0           0           0           0           0
           0           0           0           1           0           0
           0           0           1     1000000     1000000           0
           0           2           0           0           0           0
           0           0           0           0           0           0
           0           0           0           0           0           0
           0           0           0           0           0           0
           0           0           0           0           0           0
           0           0           0           0           0           0
           0           0           0           0           0           0
           0           0           0           0
Number of contracted shells                I                2
Highest angular momentum                   I                1
Largest degree of contraction              I                3
Number of primitive shells                 I                6
Pure/Cartesian d shells                    I                0
Pure/Cartesian f shells                    I                0
Virial Ratio                               R      2.009485885260855E+00
SCF Energy                                 R     -9.798650503302849E+01
Total Energy                               R     -9.798650503302849E+01
S**2                                       R      7.500000000000004E-01
S**2 after annihilation                    R      7.500000000000000E-01
RMS Density                                R      1.115760330918746E-16
Atomic numbers                             I   N=           1
           9
Nuclear charges                            R   N=           1
  9.00000000E+00
Current cartesian coordinates              R   N=           3
  0.00000000E+00  0.00000000E+00  0.00000000E+00
Int Atom Types                             I   N=           1
           0
Force Field                                I                0
MM charges                                 R   N=           1
  0.00000000E+00
Integer atomic weights                     I   N=           1
          19
Real atomic weights                        R   N=           1
  1.89984033E+01
Atom residue info                          I   N=           1
           0
Atom fragment info                         I   N=           1
           0
Atom residue num                           I   N=           1
           0
Nuclear spins                              I   N=           1
           1
Nuclear ZEff                               R   N=           1
 -6.75000000E+00
Nuclear QMom                               R   N=           1
 -9.42000000E+00
Nuclear GFac                               R   N=           1
  2.62886700E+00
MicOpt                                     I   N=           1
          -1
Constraint Structure                       R   N=           3
  0.00000000E+00  0.00000000E+00  0.00000000E+00
ONIOM Charges                              I   N=          16
           0           0           0           0           0           0
           0           0           0           0           0           0
           0           0           0           0
ONIOM Multiplicities                       I   N=          16
           2           0           0           0           0           0
           0           0           0           0           0           0
           0           0           0           0
Atom Layers                                I   N=           1
           0
Atom Modifiers                             I   N=           1
           0
Int Atom Modified Types                    I   N=           1
           0
Link Atoms                                 I   N=           1
           0
Atom Modified MM Charges                   R   N=           1
  0.00000000E+00
Link Distances                             R   N=           4
  0.00000000E+00  0.00000000E+00  0.00000000E+00  0.00000000E+00
MxBond                                     I                1
NBond                                      I   N=           1
           0
IBond                                      I   N=           1
           0
RBond                                      R   N=           1
  0.00000000E+00
Shell types                                I   N=           2
           0          -1
Number of primitives per shell             I   N=           2
           3           3
Shell to atom map                          I   N=           2
           1           1
Primitive exponents                        R   N=           6
  1.66679134E+02  3.03608123E+01  8.21682067E+00  6.46480325E+00  1.50228124E+00
  4.88588486E-01
Contraction coefficients                   R   N=           6
  1.54328967E-01  5.35328142E-01  4.44634542E-01 -9.99672292E-02  3.99512826E-01
  7.00115469E-01
P(S=P) Contraction coefficients            R   N=           6
  0.00000000E+00  0.00000000E+00  0.00000000E+00  1.55916275E-01  6.07683719E-01
  3.91957393E-01
Coordinates of each shell                  R   N=           6
  0.00000000E+00  0.00000000E+00  0.00000000E+00  0.00000000E+00  0.00000000E+00
  0.00000000E+00
Alpha Orbital Energies                     R   N=           5
 -2.59704901E+01 -1.51018762E+00 -6.24323355E-01 -5.16782614E-01 -5.16782614E-01
Beta Orbital Energies                      R   N=           5
 -2.59409908E+01 -1.31491860E+00 -4.63012244E-01 -4.63012244E-01  3.73190280E-01
Alpha MO coefficients                      R   N=          25
  9.94902218E-01  2.05806095E-02  0.00000000E+00  0.00000000E+00  0.00000000E+00
 -2.64970502E-01  1.02937662E+00  0.00000000E+00  0.00000000E+00  0.00000000E+00
  0.00000000E+00  0.00000000E+00  1.00000000E+00  0.00000000E+00  0.00000000E+00
  0.00000000E+00  0.00000000E+00  0.00000000E+00  0.00000000E+00  1.00000000E+00
  0.00000000E+00  0.00000000E+00  0.00000000E+00  1.00000000E+00  0.00000000E+00
Beta MO coefficients                       R   N=          25
  9.95341224E-01  1.88697571E-02  0.00000000E+00  0.00000000E+00  0.00000000E+00
 -2.63316609E-01  1.02940940E+00  0.00000000E+00  0.00000000E+00  0.00000000E+00
  0.00000000E+00  0.00000000E+00  0.00000000E+00  0.00000000E+00  1.00000000E+00
  0.00000000E+00  0.00000000E+00  0.00000000E+00  1.00000000E+00  0.00000000E+00
  0.00000000E+00  0.00000000E+00  1.00000000E+00  0.00000000E+00  0.00000000E+00
Total SCF Density                          R   N=          15
  2.12007958E+00 -5.04557492E-01  2.12007958E+00  0.00000000E+00  0.00000000E+00
  1.00000000E+00  0.00000000E+00  0.00000000E+00 -1.02716264E-33  2.00000000E+00
  0.00000000E+00  0.00000000E+00 -4.10865055E-33  1.02716264E-33  2.00000000E+00
Spin SCF Density                           R   N=          15
  4.44089210E-16  1.11022302E-16  8.88178420E-16  0.00000000E+00  0.00000000E+00
  1.00000000E+00  0.00000000E+00  0.00000000E+00 -1.02716264E-33  0.00000000E+00
  0.00000000E+00  0.00000000E+00 -4.10865055E-33  1.02716264E-33  0.00000000E+00
Cartesian Gradient                         R   N=           3
  0.00000000E+00  0.00000000E+00  0.00000000E+00
Cartesian Force Constants                  R   N=           6
 -1.26217745E-29 -2.18952885E-47  0.00000000E+00 -8.75811540E-47  2.18952885E-47
  0.00000000E+00
Dipole Moment                              R   N=           3
  0.00000000E+00  0.00000000E+00  0.00000000E+00
Dipole Derivatives                         R   N=           9
 -2.20055696E-15  0.00000000E+00  0.00000000E+00  0.00000000E+00  0.00000000E+00
  0.00000000E+00  0.00000000E+00  0.00000000E+00 -1.77635684E-15
Polarizability                             R   N=           6
  6.68937999E-01  0.00000000E+00  0.00000000E+00  0.00000000E+00  0.00000000E+00
  0.00000000E+00
Polarizability Derivatives                 R   N=          18
  0.00000000E+00  0.00000000E+00  0.00000000E+00  0.00000000E+00  0.00000000E+00
  0.00000000E+00  0.00000000E+00  0.00000000E+00  0.00000000E+00  0.00000000E+00
  0.00000000E+00  0.00000000E+00  0.00000000E+00  0.00000000E+00  0.00000000E+00
  0.00000000E+00  0.00000000E+00  0.00000000E+00
HyperPolarizability                        R   N=          10
  0.00000000E+00  0.00000000E+00  0.00000000E+00  0.00000000E+00  0.00000000E+00
  0.00000000E+00  0.00000000E+00  0.00000000E+00  0.00000000E+00  0.00000000E+00
Anisotropic Hyperfine tensors              R   N=           6
  4.12049146E+00  0.00000000E+00 -2.06024573E+00  0.00000000E+00  0.00000000E+00
 -2.06024573E+00
Isotropic Hyperfine splittings             R   N=           1
  3.03507099E-14
QEq coupling tensors                       R   N=           6
 -4.12049146E+00  0.00000000E+00  2.06024573E+00  0.00000000E+00  0.00000000E+00
  2.06024573E+00
Mulliken Charges                           R   N=           1
  0.00000000E+00
