comment                                                                 
Freq      RHF                                                         STO-3G              
Number of atoms                            I                2
Charge                                     I                0
Multiplicity                               I                1
Number of electrons                        I               10
Number of alpha electrons                  I                5
Number of beta electrons                   I                5
Number of basis functions                  I                6
Number of independant functions            I                6
Number of point charges in /Mol/           I                0
Number of translation vectors              I                0
Info1-9                                    I   N=           9
          10           9           0           0           0         100
           6           1           2
Num ILSW                                   I              100
ILSW                                       I   N=         100
           0           0           0           0           2           0
           0           0           0           0           0     1000000
           0           0           0           0           0           0
           0     1000000           1           0           1           0
           1           0           0           0     1000000           0
           0           0      100000           0          -1           0
           0           0           0           0           0           0
           0           0           0           1           0           0
           0           0           1     1000000     1000000           0
           0           0           0           0           0           0
           0           0           0           0           0           0
           0           0           0           0           0           0
           0           0           0           0           0           0
           0           0           0           0           0           0
           0           0           0           0           0           0
           0           0           0           0           0           0
           0           0           0           0
Number of contracted shells                I                3
Highest angular momentum                   I                1
Largest degree of contraction              I                3
Number of primitive shells                 I                9
Pure/Cartesian d shells                    I                0
Pure/Cartesian f shells                    I                0
Virial Ratio                               R      2.008670613755231E+00
SCF Energy                                 R     -9.857284738214348E+01
Total Energy                               R     -9.857284738214348E+01
RMS Force                                  R      1.339054634865770E-04
RMS Density                                R      5.926755148578963E-10
Atomic numbers                             I   N=           2
           1           9
Nuclear charges                            R   N=           2
  1.00000000E+00  9.00000000E+00
Current cartesian coordinates              R   N=           6
  0.00000000E+00  0.00000000E+00 -1.62529449E+00  0.00000000E+00  0.00000000E+00
  1.80588276E-01
Int Atom Types                             I   N=           2
           0           0
Force Field                                I                0
MM charges                                 R   N=           2
  0.00000000E+00  0.00000000E+00
Integer atomic weights                     I   N=           2
           1          19
Real atomic weights                        R   N=           2
  1.00782504E+00  1.89984033E+01
Atom residue info                          I   N=           2
           0           0
Atom fragment info                         I   N=           2
           0           0
Atom residue num                           I   N=           2
           0           0
Nuclear spins                              I   N=           2
           1           1
Nuclear ZEff                               R   N=           2
 -1.00000000E+00 -6.75000000E+00
Nuclear QMom                               R   N=           2
  0.00000000E+00 -9.42000000E+00
Nuclear GFac                               R   N=           2
  2.79284600E+00  2.62886700E+00
MicOpt                                     I   N=           2
          -1          -1
Constraint Structure                       R   N=           6
  0.00000000E+00  0.00000000E+00 -1.62529449E+00  0.00000000E+00  0.00000000E+00
  1.80588276E-01
ONIOM Charges                              I   N=          16
           0           0           0           0           0           0
           0           0           0           0           0           0
           0           0           0           0
ONIOM Multiplicities                       I   N=          16
           1           0           0           0           0           0
           0           0           0           0           0           0
           0           0           0           0
Atom Layers                                I   N=           2
           1           1
Atom Modifiers                             I   N=           2
           0           0
Int Atom Modified Types                    I   N=           2
           0           0
Link Atoms                                 I   N=           2
           0           0
Atom Modified MM Charges                   R   N=           2
  0.00000000E+00  0.00000000E+00
Link Distances                             R   N=           8
  0.00000000E+00  0.00000000E+00  0.00000000E+00  0.00000000E+00  0.00000000E+00
  0.00000000E+00  0.00000000E+00  0.00000000E+00
MxBond                                     I                1
NBond                                      I   N=           2
           1           1
IBond                                      I   N=           2
           2           1
RBond                                      R   N=           2
  1.00000000E+00  1.00000000E+00
Shell types                                I   N=           3
           0           0          -1
Number of primitives per shell             I   N=           3
           3           3           3
Shell to atom map                          I   N=           3
           1           2           2
Primitive exponents                        R   N=           9
  3.42525091E+00  6.23913730E-01  1.68855404E-01  1.66679134E+02  3.03608123E+01
  8.21682067E+00  6.46480325E+00  1.50228124E+00  4.88588486E-01
Contraction coefficients                   R   N=           9
  1.54328967E-01  5.35328142E-01  4.44634542E-01  1.54328967E-01  5.35328142E-01
  4.44634542E-01 -9.99672292E-02  3.99512826E-01  7.00115469E-01
P(S=P) Contraction coefficients            R   N=           9
  0.00000000E+00  0.00000000E+00  0.00000000E+00  0.00000000E+00  0.00000000E+00
  0.00000000E+00  1.55916275E-01  6.07683719E-01  3.91957393E-01
Coordinates of each shell                  R   N=           9
  0.00000000E+00  0.00000000E+00 -1.62529449E+00  0.00000000E+00  0.00000000E+00
  1.80588276E-01  0.00000000E+00  0.00000000E+00  1.80588276E-01
Alpha Orbital Energies                     R   N=           6
 -2.59035217E+01 -1.45981020E+00 -5.73600785E-01 -4.63115756E-01 -4.63115756E-01
  5.89652179E-01
Alpha MO coefficients                      R   N=          36
 -5.33861361E-03  9.94745971E-01  2.22583666E-02  0.00000000E+00  0.00000000E+00
 -2.67154284E-03  1.50392412E-01 -2.50685023E-01  9.46750212E-01  0.00000000E+00
  0.00000000E+00 -7.82037660E-02 -5.33759298E-01 -7.82486052E-02  4.10793812E-01
  0.00000000E+00  0.00000000E+00  6.98042847E-01  0.00000000E+00  0.00000000E+00
  0.00000000E+00  0.00000000E+00  1.00000000E+00  0.00000000E+00  0.00000000E+00
  0.00000000E+00  0.00000000E+00  1.00000000E+00  0.00000000E+00  0.00000000E+00
  1.05418985E+00  8.05507260E-02 -5.15665076E-01  0.00000000E+00  0.00000000E+00
  8.16398616E-01
Total SCF Density                          R   N=          21
  6.15090732E-01 -2.49153841E-03  2.11697075E+00 -1.53999595E-01 -4.94677443E-01
  2.13116591E+00  0.00000000E+00  0.00000000E+00  0.00000000E+00  2.00000000E+00
  0.00000000E+00  0.00000000E+00  0.00000000E+00  0.00000000E+00  2.00000000E+00
 -7.68667701E-01 -7.53477454E-02  4.25305572E-01  0.00000000E+00  0.00000000E+00
  9.86773565E-01
Cartesian Gradient                         R   N=           6
  0.00000000E+00  0.00000000E+00 -2.31931066E-04  0.00000000E+00  0.00000000E+00
  2.31931066E-04
Cartesian Force Constants                  R   N=          21
  1.28430854E-04  0.00000000E+00  1.28430854E-04  0.00000000E+00  0.00000000E+00
  7.24554863E-01 -1.28430854E-04  0.00000000E+00  0.00000000E+00  1.28430860E-04
  0.00000000E+00 -1.28430854E-04  0.00000000E+00  0.00000000E+00  1.28430860E-04
  0.00000000E+00  0.00000000E+00 -7.24554863E-01  0.00000000E+00  0.00000000E+00
  7.24554863E-01
Dipole Moment                              R   N=           3
  0.00000000E+00  0.00000000E+00 -4.92509514E-01
Dipole Derivatives                         R   N=          18
  2.72725076E-01  0.00000000E+00  0.00000000E+00  0.00000000E+00  2.72725076E-01
  0.00000000E+00  0.00000000E+00  0.00000000E+00 -1.93622973E-01 -2.72725076E-01
  0.00000000E+00  0.00000000E+00  0.00000000E+00 -2.72725076E-01  0.00000000E+00
  0.00000000E+00  0.00000000E+00  1.93622973E-01
Polarizability                             R   N=           6
  2.68325453E-03  0.00000000E+00  2.68325453E-03  0.00000000E+00  0.00000000E+00
  3.47173910E+00
Polarizability Derivatives                 R   N=          36
  0.00000000E+00  0.00000000E+00  0.00000000E+00 -1.92097511E+00  0.00000000E+00
  0.00000000E+00  0.00000000E+00  0.00000000E+00  0.00000000E+00  0.00000000E+00
 -1.92097511E+00  0.00000000E+00 -6.13452734E-03  0.00000000E+00 -6.13452734E-03
  0.00000000E+00  0.00000000E+00 -4.67695055E+00  0.00000000E+00  0.00000000E+00
  0.00000000E+00  1.92097511E+00  0.00000000E+00  0.00000000E+00  0.00000000E+00
  0.00000000E+00  0.00000000E+00  0.00000000E+00  1.92097511E+00  0.00000000E+00
  6.13452734E-03  0.00000000E+00  6.13452734E-03  0.00000000E+00  0.00000000E+00
  4.67695055E+00
HyperPolarizability                        R   N=          10
  0.00000000E+00  0.00000000E+00  0.00000000E+00  0.00000000E+00  2.08410210E-02
  0.00000000E+00  2.08410210E-02  0.00000000E+00  0.00000000E+00 -6.81926453E+00
QEq coupling tensors                       R   N=          12
  2.17099726E-01  0.00000000E+00  2.17099726E-01  0.00000000E+00  0.00000000E+00
 -4.34199451E-01  1.95644887E+00  0.00000000E+00  1.95644887E+00  0.00000000E+00
  0.00000000E+00 -3.91289774E+00
Mulliken Charges                           R   N=           2
  1.92181517E-01 -1.92181517E-01
