comment                                                                 
Freq      UHF                                                         3-21G               
Number of atoms                            I                3
Charge                                     I                0
Multiplicity                               I                2
Number of electrons                        I               19
Number of alpha electrons                  I               10
Number of beta electrons                   I                9
Number of basis functions                  I               20
Number of independant functions            I               20
Number of point charges in /Mol/           I                0
Number of translation vectors              I                0
Info1-9                                    I   N=           9
          11           7           0           0           1         100
           6           1           2
Num ILSW                                   I              100
ILSW                                       I   N=         100
           1           1           0           0           2           0
           0           0           0           0           0     1000000
           0           0           0           0           0           0
           0     1000000           1           0           1           0
           1           0           0           0     1000000           0
           0           0      100000           0          -1           0
           0           0           0           0           0           0
           0           0           0           1           0           0
           0           0           1     1000000     1000000           0
           0           0           0           0           0           0
           0           0           0           0           0           0
           0           0           0           0           0           0
           0           0           0           0           0           0
           0           0           0           0           0           0
           0           0           0           0           0           0
           0           0           0           0           0           0
           0           0           0           0
Number of contracted shells                I                8
Highest angular momentum                   I                1
Largest degree of contraction              I                3
Number of primitive shells                 I               15
Pure/Cartesian d shells                    I                1
Pure/Cartesian f shells                    I                0
Virial Ratio                               R      2.003002175858151E+00
SCF Energy                                 R     -1.981862905706840E+02
Total Energy                               R     -1.981862905706840E+02
S**2                                       R      1.750611362573679E+00
S**2 after annihilation                    R      7.520445709411282E-01
RMS Force                                  R      1.289598015530665E-06
RMS Density                                R      1.515820763726610E-09
Atomic numbers                             I   N=           3
           9           1           9
Nuclear charges                            R   N=           3
  9.00000000E+00  1.00000000E+00  9.00000000E+00
Current cartesian coordinates              R   N=           9
  0.00000000E+00  0.00000000E+00 -6.80821910E+00  0.00000000E+00  0.00000000E+00
 -1.12387179E+00  0.00000000E+00  0.00000000E+00  6.93309374E+00
Int Atom Types                             I   N=           3
           0           0           0
Force Field                                I                0
MM charges                                 R   N=           3
  0.00000000E+00  0.00000000E+00  0.00000000E+00
Integer atomic weights                     I   N=           3
          19           1          19
Real atomic weights                        R   N=           3
  1.89984033E+01  1.00782504E+00  1.89984033E+01
Atom residue info                          I   N=           3
           0           0           0
Atom fragment info                         I   N=           3
           0           0           0
Atom residue num                           I   N=           3
           0           0           0
Nuclear spins                              I   N=           3
           1           1           1
Nuclear ZEff                               R   N=           3
 -6.75000000E+00 -1.00000000E+00 -6.75000000E+00
Nuclear QMom                               R   N=           3
 -9.42000000E+00  0.00000000E+00 -9.42000000E+00
Nuclear GFac                               R   N=           3
  2.62886700E+00  2.79284600E+00  2.62886700E+00
MicOpt                                     I   N=           3
          -1          -1          -1
Constraint Structure                       R   N=           9
  0.00000000E+00  0.00000000E+00  5.59974666E+00  0.00000000E+00  0.00000000E+00
 -1.66709829E-01  0.00000000E+00  0.00000000E+00 -5.58122334E+00
ONIOM Charges                              I   N=          16
           0           0           0           0           0           0
           0           0           0           0           0           0
           0           0           0           0
ONIOM Multiplicities                       I   N=          16
           2           0           0           0           0           0
           0           0           0           0           0           0
           0           0           0           0
Atom Layers                                I   N=           3
           0           0           0
Atom Modifiers                             I   N=           3
           0           0           0
Int Atom Modified Types                    I   N=           3
           0           0           0
Link Atoms                                 I   N=           3
           0           0           0
Atom Modified MM Charges                   R   N=           3
  0.00000000E+00  0.00000000E+00  0.00000000E+00
Link Distances                             R   N=          12
  0.00000000E+00  0.00000000E+00  0.00000000E+00  0.00000000E+00  0.00000000E+00
  0.00000000E+00  0.00000000E+00  0.00000000E+00  0.00000000E+00  0.00000000E+00
  0.00000000E+00  0.00000000E+00
MxBond                                     I                1
NBond                                      I   N=           3
           0           0           0
IBond                                      I   N=           3
           0           0           0
RBond                                      R   N=           3
  0.00000000E+00  0.00000000E+00  0.00000000E+00
Shell types                                I   N=           8
           0          -1          -1           0           0           0
          -1          -1
Number of primitives per shell             I   N=           8
           3           2           1           2           1           3
           2           1
Shell to atom map                          I   N=           8
           1           1           1           2           2           3
           3           3
Primitive exponents                        R   N=          15
  4.13801000E+02  6.22446000E+01  1.34340000E+01  9.77759000E+00  2.08617000E+00
  4.82383000E-01  5.44717800E+00  8.24547240E-01  1.83191580E-01  4.13801000E+02
  6.22446000E+01  1.34340000E+01  9.77759000E+00  2.08617000E+00  4.82383000E-01
Contraction coefficients                   R   N=          15
  5.85483029E-02  3.49308017E-01  7.09632036E-01 -4.07326278E-01  1.22313783E+00
  1.00000000E+00  1.56284979E-01  9.04690877E-01  1.00000000E+00  5.85483029E-02
  3.49308017E-01  7.09632036E-01 -4.07326278E-01  1.22313783E+00  1.00000000E+00
P(S=P) Contraction coefficients            R   N=          15
  0.00000000E+00  0.00000000E+00  0.00000000E+00  2.46680003E-01  8.52321011E-01
  1.00000000E+00  0.00000000E+00  0.00000000E+00  0.00000000E+00  0.00000000E+00
  0.00000000E+00  0.00000000E+00  2.46680003E-01  8.52321011E-01  1.00000000E+00
Coordinates of each shell                  R   N=          24
  0.00000000E+00  0.00000000E+00 -6.80821910E+00  0.00000000E+00  0.00000000E+00
 -6.80821910E+00  0.00000000E+00  0.00000000E+00 -6.80821910E+00  0.00000000E+00
  0.00000000E+00 -1.12387179E+00  0.00000000E+00  0.00000000E+00 -1.12387179E+00
  0.00000000E+00  0.00000000E+00  6.93309374E+00  0.00000000E+00  0.00000000E+00
  6.93309374E+00  0.00000000E+00  0.00000000E+00  6.93309374E+00
Alpha Orbital Energies                     R   N=          20
 -2.62383481E+01 -2.62374683E+01 -1.61875016E+00 -1.61808438E+00 -7.89410224E-01
 -7.88674486E-01 -6.89652194E-01 -6.89472647E-01 -6.88926897E-01 -6.88926079E-01
  1.14512343E-01  1.25807788E+00  2.08103769E+00  2.08175321E+00  2.16020227E+00
  2.16090730E+00  2.16090861E+00  2.16472736E+00  3.19462157E+00  3.19522649E+00
Beta Orbital Energies                      R   N=          20
 -2.61949661E+01 -2.61940359E+01 -1.43215916E+00 -1.43136009E+00 -6.37136920E-01
 -6.36484078E-01 -6.35717066E-01 -6.35716234E-01 -4.94835234E-01  1.33902437E-01
  1.34623780E-01  1.06945177E+00  2.18910441E+00  2.18984278E+00  2.18984407E+00
  2.19297154E+00  2.31730029E+00  2.31804398E+00  3.26652902E+00  3.26698155E+00
Alpha MO coefficients                      R   N=         400
  9.81350745E-01  9.32247560E-02  0.00000000E+00  0.00000000E+00  4.55513188E-06
 -2.32857029E-02  0.00000000E+00  0.00000000E+00 -9.36226912E-06 -1.91554341E-04
  3.06325476E-04  2.65698409E-05  2.57826675E-06  0.00000000E+00  0.00000000E+00
 -7.21386005E-08 -7.14172309E-07  0.00000000E+00  0.00000000E+00  1.65731860E-07
 -2.65621809E-05 -2.46496475E-06  0.00000000E+00  0.00000000E+00  5.75244171E-08
  5.30903998E-07  0.00000000E+00  0.00000000E+00 -1.46035049E-07 -3.13086770E-06
  4.98265899E-06  9.81350030E-01  9.32227065E-02  0.00000000E+00  0.00000000E+00
  2.07485180E-08 -2.32795689E-02  0.00000000E+00  0.00000000E+00 -1.10205298E-08
 -2.59370980E-01  2.68974234E-01  0.00000000E+00  0.00000000E+00 -5.30437628E-05
  8.05962551E-01  0.00000000E+00  0.00000000E+00 -3.41437446E-05 -1.12237747E-03
  2.87316099E-03 -1.64739194E-04  1.70767910E-04  0.00000000E+00  0.00000000E+00
 -3.30908138E-07  5.11981812E-04  0.00000000E+00  0.00000000E+00 -4.29211079E-07
  1.65105352E-04 -1.70898486E-04  0.00000000E+00  0.00000000E+00  5.89183198E-07
 -5.13644953E-04  0.00000000E+00  0.00000000E+00 -1.08225865E-06 -5.07660700E-05
  1.16644935E-04 -2.59376900E-01  2.68958728E-01  0.00000000E+00  0.00000000E+00
  3.02374474E-06  8.06007422E-01  0.00000000E+00  0.00000000E+00  9.47586819E-06
  0.00000000E+00  0.00000000E+00  5.74780613E-01  0.00000000E+00  0.00000000E+00
  0.00000000E+00  5.84408862E-01  0.00000000E+00  0.00000000E+00  0.00000000E+00
  0.00000000E+00  0.00000000E+00  0.00000000E+00  8.53753511E-10  0.00000000E+00
  0.00000000E+00  0.00000000E+00  1.13242834E-09  0.00000000E+00  0.00000000E+00
 -1.93766513E-06  1.85604341E-06  0.00000000E+00  0.00000000E+00 -3.45758847E-05
  7.17431060E-06  0.00000000E+00  0.00000000E+00 -3.34818627E-05  1.85621603E-04
 -5.96951468E-04  3.18064592E-06 -7.27370616E-06  0.00000000E+00  0.00000000E+00
  5.74732338E-01 -4.84621311E-06  0.00000000E+00  0.00000000E+00  5.84456521E-01
  0.00000000E+00  0.00000000E+00  0.00000000E+00  5.62230297E-01  0.00000000E+00
  0.00000000E+00  0.00000000E+00  5.96795761E-01  0.00000000E+00  0.00000000E+00
  0.00000000E+00  0.00000000E+00  0.00000000E+00  0.00000000E+00  1.38111438E-07
  0.00000000E+00  0.00000000E+00  0.00000000E+00  1.46864279E-07  0.00000000E+00
  4.44732892E-05 -1.04220076E-04  0.00000000E+00  0.00000000E+00  5.61899375E-01
 -9.44615233E-05  0.00000000E+00  0.00000000E+00  5.96665929E-01 -4.15842956E-03
  1.74606824E-02  1.42114199E-06 -2.84346357E-06  0.00000000E+00  0.00000000E+00
  4.93728653E-05 -2.74680854E-06  0.00000000E+00  0.00000000E+00  4.42016506E-05
  0.00000000E+00  0.00000000E+00 -1.16556444E-09  0.00000000E+00  0.00000000E+00
  0.00000000E+00 -8.24174767E-10  0.00000000E+00  0.00000000E+00  0.00000000E+00
  0.00000000E+00  0.00000000E+00  0.00000000E+00  5.62182643E-01  0.00000000E+00
  0.00000000E+00  0.00000000E+00  5.96842446E-01  0.00000000E+00  0.00000000E+00
  0.00000000E+00  0.00000000E+00  0.00000000E+00 -1.38414544E-07  0.00000000E+00
  0.00000000E+00  0.00000000E+00 -1.46567332E-07  0.00000000E+00  0.00000000E+00
  0.00000000E+00  0.00000000E+00  0.00000000E+00  0.00000000E+00  5.62183065E-01
  0.00000000E+00  0.00000000E+00  0.00000000E+00  5.96842032E-01  0.00000000E+00
  2.77027193E-03 -6.06038842E-03  0.00000000E+00  0.00000000E+00 -2.09389289E-02
 -5.94567528E-03  0.00000000E+00  0.00000000E+00 -1.22972135E-02  1.64281258E-01
  8.85897003E-01  6.27515941E-05 -1.98099477E-04  0.00000000E+00  0.00000000E+00
  7.56125585E-04 -2.90601571E-05  0.00000000E+00  0.00000000E+00  6.15649728E-05
 -3.78292443E-03  1.72506249E-02  0.00000000E+00  0.00000000E+00  4.88210634E-02
 -3.74215956E-03  0.00000000E+00  0.00000000E+00 -2.44560109E-02  1.29773329E+00
 -9.62494200E-01 -8.17192816E-05  4.43214206E-04  0.00000000E+00  0.00000000E+00
 -1.78035544E-03 -1.99541778E-04  0.00000000E+00  0.00000000E+00  1.22632047E-03
  0.00000000E+00  0.00000000E+00  9.91379616E-01  0.00000000E+00  0.00000000E+00
  0.00000000E+00 -9.85734537E-01  0.00000000E+00  0.00000000E+00  0.00000000E+00
  0.00000000E+00  0.00000000E+00  0.00000000E+00  5.56013777E-09  0.00000000E+00
  0.00000000E+00  0.00000000E+00 -5.23924606E-09  0.00000000E+00  0.00000000E+00
 -1.49300564E-05  1.00342194E-04  0.00000000E+00  0.00000000E+00  1.69276208E-03
 -5.80550303E-05  0.00000000E+00  0.00000000E+00 -1.60299110E-03  2.30010598E-03
 -2.42609750E-03 -2.71707627E-06  1.92306044E-05  0.00000000E+00  0.00000000E+00
  9.91404503E-01 -1.25443941E-05  0.00000000E+00  0.00000000E+00 -9.85704499E-01
  0.00000000E+00  0.00000000E+00  0.00000000E+00  9.98550645E-01  0.00000000E+00
  0.00000000E+00  0.00000000E+00 -9.78284783E-01  0.00000000E+00  0.00000000E+00
  0.00000000E+00  0.00000000E+00  0.00000000E+00  0.00000000E+00  6.11570830E-07
  0.00000000E+00  0.00000000E+00  0.00000000E+00 -5.98924681E-07  0.00000000E+00
  0.00000000E+00  0.00000000E+00 -5.35528605E-09  0.00000000E+00  0.00000000E+00
  0.00000000E+00  5.45297236E-09  0.00000000E+00  0.00000000E+00  0.00000000E+00
  0.00000000E+00  0.00000000E+00  0.00000000E+00  9.98577474E-01  0.00000000E+00
  0.00000000E+00  0.00000000E+00 -9.78256301E-01  0.00000000E+00  0.00000000E+00
  0.00000000E+00  0.00000000E+00  0.00000000E+00 -6.11390432E-07  0.00000000E+00
  0.00000000E+00  0.00000000E+00  5.99116188E-07  0.00000000E+00  0.00000000E+00
  0.00000000E+00  0.00000000E+00  0.00000000E+00  0.00000000E+00  9.98577236E-01
  0.00000000E+00  0.00000000E+00  0.00000000E+00 -9.78256554E-01  0.00000000E+00
  5.08777550E-04 -3.59486821E-03  0.00000000E+00  0.00000000E+00  9.97473286E-01
  2.20464809E-03  0.00000000E+00  0.00000000E+00 -9.78848690E-01 -7.23955399E-02
  7.88245893E-02  1.09236757E-05 -8.23892364E-05  0.00000000E+00  0.00000000E+00
 -1.59381013E-03  5.63681356E-05  0.00000000E+00  0.00000000E+00  1.62330768E-03
  6.44447954E-03 -6.67267840E-02  0.00000000E+00  0.00000000E+00 -5.19823104E-05
  5.64878942E-02  0.00000000E+00  0.00000000E+00  6.53899417E-05  6.23875846E-04
 -7.75777392E-04 -1.40051355E-01  1.44970533E+00  0.00000000E+00  0.00000000E+00
 -7.86447605E-06 -1.22706260E+00  0.00000000E+00  0.00000000E+00  1.10176404E-05
 -1.39981553E-01  1.44969627E+00  0.00000000E+00  0.00000000E+00  2.07181743E-03
 -1.22740308E+00  0.00000000E+00  0.00000000E+00 -2.65243156E-03 -2.52447193E-02
  3.11892244E-02 -6.44492700E-03  6.67245403E-02  0.00000000E+00  0.00000000E+00
 -5.39502805E-05 -5.64821465E-02  0.00000000E+00  0.00000000E+00  6.77594962E-05
Beta MO coefficients                       R   N=         400
  9.81974325E-01  9.12344832E-02  0.00000000E+00  0.00000000E+00  4.88585340E-06
 -2.35212967E-02  0.00000000E+00  0.00000000E+00 -9.54148148E-06 -1.93698565E-04
  3.08164880E-04  2.48241214E-05  2.36094824E-06  0.00000000E+00  0.00000000E+00
 -7.27296927E-08 -6.78962826E-07  0.00000000E+00  0.00000000E+00  1.66335518E-07
 -2.48165132E-05 -2.24837221E-06  0.00000000E+00  0.00000000E+00  5.64677017E-08
  4.96914366E-07  0.00000000E+00  0.00000000E+00 -1.43429570E-07 -3.06490534E-06
  4.90126214E-06  9.81974107E-01  9.12306322E-02  0.00000000E+00  0.00000000E+00
  3.80382676E-08 -2.35150649E-02  0.00000000E+00  0.00000000E+00 -1.36536195E-09
 -2.55936442E-01  2.52559213E-01  0.00000000E+00  0.00000000E+00  6.23793847E-05
  8.19863550E-01  0.00000000E+00  0.00000000E+00  8.63986925E-06 -1.16212838E-03
  4.82122229E-03 -2.33727872E-04  2.30453430E-04  0.00000000E+00  0.00000000E+00
 -6.68020118E-08  7.48950063E-04  0.00000000E+00  0.00000000E+00 -5.82644457E-07
  2.34340150E-04 -2.30942874E-04  0.00000000E+00  0.00000000E+00  6.44755086E-07
 -7.51324657E-04  0.00000000E+00  0.00000000E+00 -1.00941462E-06 -3.59207227E-05
  1.53585958E-04 -2.55943116E-01  2.52512438E-01  0.00000000E+00  0.00000000E+00
  8.67553211E-06  8.19961048E-01  0.00000000E+00  0.00000000E+00  1.45827138E-05
  2.12366178E-04 -2.55219262E-04  0.00000000E+00  0.00000000E+00  5.51302388E-01
 -7.06801428E-04  0.00000000E+00  0.00000000E+00  6.04282193E-01  1.40071431E-02
  5.18297336E-02  4.70858384E-06 -9.03978473E-06  0.00000000E+00  0.00000000E+00
 -6.80801837E-06 -9.68711186E-06  0.00000000E+00  0.00000000E+00 -3.24560578E-05
  0.00000000E+00  0.00000000E+00  0.00000000E+00  5.52844489E-01  0.00000000E+00
  0.00000000E+00  0.00000000E+00  6.05940651E-01  0.00000000E+00  0.00000000E+00
  0.00000000E+00  0.00000000E+00  0.00000000E+00  0.00000000E+00  1.64575634E-07
  0.00000000E+00  0.00000000E+00  0.00000000E+00  1.80778018E-07  0.00000000E+00
  0.00000000E+00  0.00000000E+00 -4.56439715E-11  0.00000000E+00  0.00000000E+00
  0.00000000E+00  4.95450807E-10  0.00000000E+00  0.00000000E+00  0.00000000E+00
  0.00000000E+00  0.00000000E+00  0.00000000E+00  5.52779957E-01  0.00000000E+00
  0.00000000E+00  0.00000000E+00  6.06003179E-01  0.00000000E+00  0.00000000E+00
  0.00000000E+00  0.00000000E+00  0.00000000E+00 -1.65012257E-07  0.00000000E+00
  0.00000000E+00  0.00000000E+00 -1.80354949E-07  0.00000000E+00  0.00000000E+00
  0.00000000E+00  0.00000000E+00  0.00000000E+00  0.00000000E+00  5.52780390E-01
  0.00000000E+00  0.00000000E+00  0.00000000E+00  6.06002760E-01  0.00000000E+00
  2.59113825E-03 -3.65372877E-03  0.00000000E+00  0.00000000E+00 -4.15083096E-02
 -8.02509485E-03  0.00000000E+00  0.00000000E+00 -4.32819227E-02  3.73673928E-01
  7.15190514E-01  6.08770710E-05 -1.30186586E-04  0.00000000E+00  0.00000000E+00
 -1.59217083E-04 -1.08410569E-04  0.00000000E+00  0.00000000E+00 -6.06481828E-04
  0.00000000E+00  0.00000000E+00  4.54740552E-01  0.00000000E+00  0.00000000E+00
  0.00000000E+00  6.95813470E-01  0.00000000E+00  0.00000000E+00  0.00000000E+00
  0.00000000E+00  0.00000000E+00  0.00000000E+00 -5.13120068E-10  0.00000000E+00
  0.00000000E+00  0.00000000E+00  1.94038153E-11  0.00000000E+00  0.00000000E+00
 -3.79587462E-07  2.35475874E-07  0.00000000E+00  0.00000000E+00  6.77783624E-07
  1.63697843E-06  0.00000000E+00  0.00000000E+00  3.17533210E-06  1.27415057E-03
 -1.50324522E-04  5.44131848E-06 -7.98996759E-06  0.00000000E+00  0.00000000E+00
  4.54682598E-01 -1.42141828E-05  0.00000000E+00  0.00000000E+00  6.95862818E-01
 -4.15493563E-03  1.60086786E-02  0.00000000E+00  0.00000000E+00  4.39651916E-02
 -1.80768147E-04  0.00000000E+00  0.00000000E+00 -1.42125797E-02  1.25411544E+00
 -1.09474088E+00 -8.72158703E-05  4.16731990E-04  0.00000000E+00  0.00000000E+00
 -1.52889381E-03 -1.38583121E-04  0.00000000E+00  0.00000000E+00  1.21076974E-04
  0.00000000E+00  0.00000000E+00  0.00000000E+00  1.00377750E+00  0.00000000E+00
  0.00000000E+00  0.00000000E+00 -9.72647019E-01  0.00000000E+00  0.00000000E+00
  0.00000000E+00  0.00000000E+00  0.00000000E+00  0.00000000E+00  1.50062723E-06
  0.00000000E+00  0.00000000E+00  0.00000000E+00 -1.45370047E-06  0.00000000E+00
  0.00000000E+00  0.00000000E+00  8.83822428E-09  0.00000000E+00  0.00000000E+00
  0.00000000E+00 -7.34478775E-09  0.00000000E+00  0.00000000E+00  0.00000000E+00
  0.00000000E+00  0.00000000E+00  0.00000000E+00  1.00381304E+00  0.00000000E+00
  0.00000000E+00  0.00000000E+00 -9.72608063E-01  0.00000000E+00  0.00000000E+00
  0.00000000E+00  0.00000000E+00  0.00000000E+00 -1.50034453E-06  0.00000000E+00
  0.00000000E+00  0.00000000E+00  1.45401036E-06  0.00000000E+00  0.00000000E+00
  0.00000000E+00  0.00000000E+00  0.00000000E+00  0.00000000E+00  1.00381280E+00
  0.00000000E+00  0.00000000E+00  0.00000000E+00 -9.72608324E-01  0.00000000E+00
  4.54225329E-04 -3.00050813E-03  0.00000000E+00  0.00000000E+00  1.00295503E+00
  1.68459467E-03  0.00000000E+00  0.00000000E+00 -9.73486103E-01 -6.18039894E-02
  7.19329380E-02  9.73855436E-06 -7.14864493E-05  0.00000000E+00  0.00000000E+00
  9.81294929E-04  4.74609668E-05  0.00000000E+00  0.00000000E+00 -7.98881576E-04
  0.00000000E+00  0.00000000E+00  1.05186374E+00  0.00000000E+00  0.00000000E+00
  0.00000000E+00 -9.10521780E-01  0.00000000E+00  0.00000000E+00  0.00000000E+00
  0.00000000E+00  0.00000000E+00  0.00000000E+00 -8.18866202E-09  0.00000000E+00
  0.00000000E+00  0.00000000E+00  8.19019046E-09  0.00000000E+00  0.00000000E+00
 -1.42329162E-05  1.01055548E-04  0.00000000E+00  0.00000000E+00 -8.80889614E-04
 -6.23442210E-05  0.00000000E+00  0.00000000E+00  8.98073170E-04  1.68674610E-03
 -1.95015176E-03 -2.97423114E-06  2.81782495E-05  0.00000000E+00  0.00000000E+00
  1.05188728E+00 -2.27458478E-05  0.00000000E+00  0.00000000E+00 -9.10483853E-01
  8.26619613E-03 -8.46131464E-02  0.00000000E+00  0.00000000E+00 -6.41441875E-05
  7.09416320E-02  0.00000000E+00  0.00000000E+00  8.61035662E-05  8.65448407E-04
 -1.10327997E-03 -1.41886457E-01  1.45185480E+00  0.00000000E+00  0.00000000E+00
 -1.55077070E-05 -1.21702188E+00  0.00000000E+00  0.00000000E+00  1.49333203E-05
 -1.41815298E-01  1.45186397E+00  0.00000000E+00  0.00000000E+00  1.78467250E-03
 -1.21739517E+00  0.00000000E+00  0.00000000E+00 -2.37072497E-03 -2.32911587E-02
  2.95060203E-02 -8.26779289E-03  8.46112357E-02  0.00000000E+00  0.00000000E+00
 -6.03796989E-05 -7.09304725E-02  0.00000000E+00  0.00000000E+00  6.97016931E-05
Total SCF Density                          R   N=         210
  2.06010647E+00  4.66632782E-02  1.53161389E-01  0.00000000E+00  0.00000000E+00
  3.30372753E-01  0.00000000E+00  0.00000000E+00  0.00000000E+00  6.21739935E-01
  4.15748579E-05 -4.52469008E-05  0.00000000E+00  0.00000000E+00  6.21388179E-01
 -4.64846217E-01  4.19560269E-01  0.00000000E+00  0.00000000E+00 -1.01461793E-04
  1.32291309E+00  0.00000000E+00  0.00000000E+00  3.35906884E-01  0.00000000E+00
  0.00000000E+00  0.00000000E+00  3.41533718E-01  0.00000000E+00  0.00000000E+00
  0.00000000E+00  6.70527607E-01  0.00000000E+00  0.00000000E+00  0.00000000E+00
  7.23329253E-01  3.08024876E-05 -6.70132774E-05  0.00000000E+00  0.00000000E+00
  6.70204992E-01 -1.56119512E-04  0.00000000E+00  0.00000000E+00  7.23040528E-01
  1.18136765E-03 -1.99935380E-03  0.00000000E+00  0.00000000E+00 -1.01250419E-02
 -4.85658617E-03  0.00000000E+00  0.00000000E+00 -1.01902263E-02  1.39848420E-01
  4.89078742E-04 -5.81093624E-04  0.00000000E+00  0.00000000E+00  8.69882522E-03
  4.76089154E-04  0.00000000E+00  0.00000000E+00  1.07831163E-02  2.67892358E-01
  5.14520749E-01 -8.04059158E-08 -1.41937033E-08  0.00000000E+00  0.00000000E+00
  6.55839201E-07  4.39808359E-07  0.00000000E+00  0.00000000E+00  1.31630702E-06
  3.95345049E-05 -1.76403490E-05  2.06010437E+00  7.56432685E-08  3.53820949E-07
  0.00000000E+00  0.00000000E+00 -8.40189231E-07 -2.64583553E-07  0.00000000E+00
  0.00000000E+00 -2.10076733E-06 -7.25198022E-05 -2.09521393E-05  4.66796330E-02
  1.53114929E-01  0.00000000E+00  0.00000000E+00 -1.89770201E-10  0.00000000E+00
  0.00000000E+00  0.00000000E+00  3.09479645E-10  0.00000000E+00  0.00000000E+00
  0.00000000E+00  0.00000000E+00  0.00000000E+00  0.00000000E+00  6.21615006E-01
  0.00000000E+00  0.00000000E+00  0.00000000E+00 -3.94685356E-10  0.00000000E+00
  0.00000000E+00  0.00000000E+00  5.30367760E-11  0.00000000E+00  0.00000000E+00
  0.00000000E+00  0.00000000E+00  0.00000000E+00  0.00000000E+00  6.21615958E-01
 -1.56219846E-06  1.52329787E-06  0.00000000E+00  0.00000000E+00  1.07262784E-05
  5.07503973E-06  0.00000000E+00  0.00000000E+00  1.29932546E-05  4.68868018E-05
 -4.56448267E-04 -1.12858620E-06 -1.15051054E-06  0.00000000E+00  0.00000000E+00
  3.30317288E-01  3.00359274E-07  1.35128501E-07  0.00000000E+00  0.00000000E+00
 -1.36340275E-06 -2.49793979E-06  0.00000000E+00  0.00000000E+00 -4.50450992E-06
 -1.12306580E-04  1.46720013E-04 -4.64859949E-01  4.19517890E-01  0.00000000E+00
  0.00000000E+00  6.78107802E-06  1.32307982E+00  0.00000000E+00  0.00000000E+00
 -7.24208615E-11  0.00000000E+00  0.00000000E+00  0.00000000E+00  4.70143441E-10
  0.00000000E+00  0.00000000E+00  0.00000000E+00  0.00000000E+00  0.00000000E+00
  0.00000000E+00  6.70520875E-01  0.00000000E+00  0.00000000E+00  0.00000000E+00
  7.23460758E-01  0.00000000E+00  0.00000000E+00  0.00000000E+00 -9.58228132E-11
  0.00000000E+00  0.00000000E+00  0.00000000E+00  4.15588109E-10  0.00000000E+00
  0.00000000E+00  0.00000000E+00  0.00000000E+00  0.00000000E+00  0.00000000E+00
  6.70520925E-01  0.00000000E+00  0.00000000E+00  0.00000000E+00  7.23459756E-01
 -2.11748076E-06  3.06741324E-06  0.00000000E+00  0.00000000E+00  1.19097148E-05
  8.23169923E-06  0.00000000E+00  0.00000000E+00  1.34419892E-05 -1.18777027E-04
 -7.83553221E-04 -4.38016845E-06  2.05753390E-06  0.00000000E+00  0.00000000E+00
  3.35906162E-01  1.68280508E-05  0.00000000E+00  0.00000000E+00  3.41589796E-01
Spin SCF Density                           R   N=         210
  5.38768243E-04 -3.21919783E-03  8.91467831E-03  0.00000000E+00  0.00000000E+00
  3.30372753E-01  0.00000000E+00  0.00000000E+00  0.00000000E+00  1.04658777E-02
  4.48608840E-05 -9.95613289E-05  0.00000000E+00  0.00000000E+00  1.00736448E-02
  1.05656153E-03  9.66463816E-03  0.00000000E+00  0.00000000E+00 -9.04097619E-05
 -2.26768271E-02  0.00000000E+00  0.00000000E+00  3.35906884E-01  0.00000000E+00
  0.00000000E+00  0.00000000E+00  3.41533718E-01  0.00000000E+00  0.00000000E+00
  0.00000000E+00  5.45708195E-04  0.00000000E+00  0.00000000E+00  0.00000000E+00
 -1.09988925E-02  2.16051388E-05 -7.74687785E-05  0.00000000E+00  0.00000000E+00
  3.27439184E-04 -1.12049472E-05  0.00000000E+00  0.00000000E+00 -1.10200612E-02
 -9.75494542E-04  1.36074218E-03  0.00000000E+00  0.00000000E+00  5.45190835E-03
  3.05715914E-03  0.00000000E+00  0.00000000E+00  5.22790775E-03 -1.39811168E-01
 -1.37668880E-03  2.18013880E-03  0.00000000E+00  0.00000000E+00  1.09232072E-02
  4.13753805E-03  0.00000000E+00  0.00000000E+00  1.00531100E-02 -2.68044376E-01
 -5.13893561E-01 -9.63038145E-08  1.62898690E-07  0.00000000E+00  0.00000000E+00
  7.65999425E-07  2.72607883E-07  0.00000000E+00  0.00000000E+00  6.64928903E-07
 -1.89953861E-05 -3.39747250E-05  5.44200989E-04  2.60673521E-07 -3.97063365E-07
  0.00000000E+00  0.00000000E+00 -2.04522436E-06 -7.89577851E-07  0.00000000E+00
  0.00000000E+00 -1.91304424E-06  4.42647396E-05  8.55187336E-05 -3.23483991E-03
  8.94366984E-03  0.00000000E+00  0.00000000E+00 -1.39308056E-10  0.00000000E+00
  0.00000000E+00  0.00000000E+00 -2.38270907E-10  0.00000000E+00  0.00000000E+00
  0.00000000E+00  0.00000000E+00  0.00000000E+00  0.00000000E+00  1.04836432E-02
  0.00000000E+00  0.00000000E+00  0.00000000E+00  6.69297871E-11  0.00000000E+00
  0.00000000E+00  0.00000000E+00  2.60747580E-13  0.00000000E+00  0.00000000E+00
  0.00000000E+00  0.00000000E+00  0.00000000E+00  0.00000000E+00  1.04836397E-02
 -6.29620843E-07  4.07371838E-07  0.00000000E+00  0.00000000E+00  5.01516583E-06
  2.62910342E-06  0.00000000E+00  0.00000000E+00  7.43875743E-06  1.66068510E-04
 -2.28003432E-04  3.25701590E-06 -5.58035839E-06  0.00000000E+00  0.00000000E+00
  3.30317237E-01  1.00249662E-07 -2.24029923E-07  0.00000000E+00  0.00000000E+00
 -8.30349748E-07 -2.20024062E-07  0.00000000E+00  0.00000000E+00 -5.45786021E-07
  2.94887373E-05  4.39328046E-05  1.04955582E-03  9.70737828E-03  0.00000000E+00
  0.00000000E+00 -7.47888340E-06 -2.26994857E-02  0.00000000E+00  0.00000000E+00
 -1.71000778E-11  0.00000000E+00  0.00000000E+00  0.00000000E+00 -1.30346087E-10
  0.00000000E+00  0.00000000E+00  0.00000000E+00  0.00000000E+00  0.00000000E+00
  0.00000000E+00  5.48052453E-04  0.00000000E+00  0.00000000E+00  0.00000000E+00
 -1.10189477E-02  0.00000000E+00  0.00000000E+00  0.00000000E+00  1.56824072E-11
  0.00000000E+00  0.00000000E+00  0.00000000E+00 -7.47177911E-11  0.00000000E+00
  0.00000000E+00  0.00000000E+00  0.00000000E+00  0.00000000E+00  0.00000000E+00
  5.48041465E-04  0.00000000E+00  0.00000000E+00  0.00000000E+00 -1.10189334E-02
  4.07511891E-07 -1.11030487E-06  0.00000000E+00  0.00000000E+00 -2.65209955E-06
 -5.63213668E-07  0.00000000E+00  0.00000000E+00  1.67868304E-07  3.35384858E-04
  8.73122922E-05  3.16107018E-06 -5.46508083E-06  0.00000000E+00  0.00000000E+00
  3.35905968E-01 -7.21778183E-06  0.00000000E+00  0.00000000E+00  3.41589058E-01
Cartesian Gradient                         R   N=           9
  0.00000000E+00  0.00000000E+00 -2.67520087E-08  0.00000000E+00  0.00000000E+00
 -2.72217640E-06  0.00000000E+00  0.00000000E+00  2.74892840E-06