dene                                                                    
Freq      RB3LYP                                                      6-31+G(d)           
Number of atoms                            I                6
Charge                                     I                0
Multiplicity                               I                1
Number of electrons                        I               16
Number of alpha electrons                  I                8
Number of beta electrons                   I                8
Number of basis functions                  I               46
Number of independant functions            I               46
Number of point charges in /Mol/           I                0
Number of translation vectors              I                0
Info1-9                                    I   N=           9
          16          16        1002           0           0         100
           6          18        -502
Num ILSW                                   I              100
ILSW                                       I   N=         100
           0           1           0           0           2           0
           0           0           0           0         402      200000
           0           0          -1           0           0           0
           0      800000           1           0           1           0
           1           0           0           0     1000000           0
           0           0      100000           0          -1           0
           0           0           0           0           0           0
           0           0           0           1           0           0
           0           0           1      720000      810000           0
           0           0           0           0           0           0
           0           0           0           0           0           0
           0           0           0           0           0           0
           0           0           0           0           0           0
           0           0           0           0           0           0
           0           0           0           0           0           0
           0           0           0           0           0           0
           0           0           0           0
Number of contracted shells                I               18
Highest angular momentum                   I                2
Largest degree of contraction              I                6
Number of primitive shells                 I               40
Pure/Cartesian d shells                    I                1
Pure/Cartesian f shells                    I                0
Virial Ratio                               R      2.010989685701551E+00
SCF Energy                                 R     -7.859326870685789E+01
Total Energy                               R     -7.859326870685789E+01
RMS Force                                  R      8.093605142502835E-05
RMS Density                                R      7.652174296031790E-11
Atomic numbers                             I   N=           6
           6           1           1           6           1           1
Nuclear charges                            R   N=           6
  6.00000000E+00  1.00000000E+00  1.00000000E+00  6.00000000E+00  1.00000000E+00
  1.00000000E+00
Current cartesian coordinates              R   N=          18
  0.00000000E+00 -4.93038066E-32  1.26110548E+00 -3.94430453E-31  1.74714955E+00
  2.34349842E+00 -2.13964110E-16 -1.74714955E+00  2.34349842E+00  1.54440879E-16
  1.97215226E-31 -1.26110548E+00 -2.13964110E-16 -1.74714955E+00 -2.34349842E+00
  2.86995784E-16  1.74714955E+00 -2.34349842E+00
Int Atom Types                             I   N=           6
           0           0           0           0           0           0
Force Field                                I                0
MM charges                                 R   N=           6
  0.00000000E+00  0.00000000E+00  0.00000000E+00  0.00000000E+00  0.00000000E+00
  0.00000000E+00
Integer atomic weights                     I   N=           6
          12           1           1          12           1           1
Real atomic weights                        R   N=           6
  1.20000000E+01  1.00782504E+00  1.00782504E+00  1.20000000E+01  1.00782504E+00
  1.00782504E+00
Atom residue info                          I   N=           6
           0           0           0           0           0           0
Atom fragment info                         I   N=           6
           0           0           0           0           0           0
Atom residue num                           I   N=           6
           0           0           0           0           0           0
Nuclear spins                              I   N=           6
           0           1           1           0           1           1
Nuclear ZEff                               R   N=           6
 -3.60000000E+00 -1.00000000E+00 -1.00000000E+00 -3.60000000E+00 -1.00000000E+00
 -1.00000000E+00
Nuclear QMom                               R   N=           6
  0.00000000E+00  0.00000000E+00  0.00000000E+00  0.00000000E+00  0.00000000E+00
  0.00000000E+00
Nuclear GFac                               R   N=           6
  0.00000000E+00  2.79284600E+00  2.79284600E+00  0.00000000E+00  2.79284600E+00
  2.79284600E+00
MicOpt                                     I   N=           6
          -1          -1          -1          -1          -1          -1
Constraint Structure                       R   N=          18
  0.00000000E+00 -4.93038066E-32  1.26110548E+00 -3.94430453E-31  1.74714955E+00
  2.34349842E+00 -2.13964110E-16 -1.74714955E+00  2.34349842E+00  1.54440879E-16
  1.97215226E-31 -1.26110548E+00 -2.13964110E-16 -1.74714955E+00 -2.34349842E+00
  2.86995784E-16  1.74714955E+00 -2.34349842E+00
ONIOM Charges                              I   N=          16
           0           0           0           0           0           0
           0           0           0           0           0           0
           0           0           0           0
ONIOM Multiplicities                       I   N=          16
           1           0           0           0           0           0
           0           0           0           0           0           0
           0           0           0           0
Atom Layers                                I   N=           6
           0           0           0           0           0           0
Atom Modifiers                             I   N=           6
           0           0           0           0           0           0
Int Atom Modified Types                    I   N=           6
           0           0           0           0           0           0
Link Atoms                                 I   N=           6
           0           0           0           0           0           0
Atom Modified MM Charges                   R   N=           6
  0.00000000E+00  0.00000000E+00  0.00000000E+00  0.00000000E+00  0.00000000E+00
  0.00000000E+00
Link Distances                             R   N=          24
  0.00000000E+00  0.00000000E+00  0.00000000E+00  0.00000000E+00  0.00000000E+00
  0.00000000E+00  0.00000000E+00  0.00000000E+00  0.00000000E+00  0.00000000E+00
  0.00000000E+00  0.00000000E+00  0.00000000E+00  0.00000000E+00  0.00000000E+00
  0.00000000E+00  0.00000000E+00  0.00000000E+00  0.00000000E+00  0.00000000E+00
  0.00000000E+00  0.00000000E+00  0.00000000E+00  0.00000000E+00
MxBond                                     I                3
NBond                                      I   N=           6
           3           1           1           3           1           1
IBond                                      I   N=          18
           2           3           4           1           0           0
           1           0           0           1           5           6
           4           0           0           4           0           0
RBond                                      R   N=          18
  1.00000000E+00  1.00000000E+00  2.00000000E+00  1.00000000E+00  0.00000000E+00
  0.00000000E+00  1.00000000E+00  0.00000000E+00  0.00000000E+00  2.00000000E+00
  1.00000000E+00  1.00000000E+00  1.00000000E+00  0.00000000E+00  0.00000000E+00
  1.00000000E+00  0.00000000E+00  0.00000000E+00
Cartesian Gradient                         R   N=          18
  3.21469098E-16 -4.75856334E-16  4.58406836E-05  1.61038660E-16 -1.36572810E-04
 -9.88690210E-05 -1.07265184E-15  1.36572810E-04 -9.88690210E-05  1.62534501E-15
 -1.37101430E-15 -4.58406836E-05 -1.90897516E-15  1.36572810E-04  9.88690210E-05
  8.73774240E-16 -1.36572810E-04  9.88690210E-05
Cartesian Force Constants                  R   N=         171
  1.08206360E-01 -4.41301958E-12  6.40605403E-01 -1.65386327E-11 -2.12917310E-10
  8.63453561E-01 -3.62322148E-02 -5.43689534E-12  4.33423852E-11  2.38789315E-02
  6.04782341E-12 -2.67056341E-01 -1.25088051E-01 -7.86477628E-12  2.76773182E-01
  4.00272407E-13 -1.21075995E-01 -1.31427204E-01 -2.54973579E-12  1.36502325E-01
  1.38386927E-01 -3.62322148E-02 -6.42299096E-12 -3.44566921E-11  2.73338307E-03
  2.38746571E-12  3.51062875E-12  2.38789315E-02  7.74860952E-12 -2.67056341E-01
  1.25088051E-01  2.38746339E-12 -1.66871245E-02  1.36646823E-02 -7.86530356E-12
  2.76773182E-01 -1.60816455E-13  1.21075995E-01 -1.31427204E-01 -3.51062961E-12
 -1.36646823E-02  1.03305772E-02  2.55000105E-12 -1.36502325E-01  1.38386927E-01
 -4.63794855E-02 -3.30970893E-13  1.46618394E-12  5.31877809E-03  3.22622869E-12
 -3.83858761E-12  5.31877799E-03  6.02604600E-12  3.16158377E-12  1.08206360E-01
  3.30802406E-13 -1.14361920E-01  4.48681535E-10  3.39653120E-12  3.93459905E-03
 -3.00453502E-02  5.04282400E-12  3.93459909E-03  3.00453502E-02  4.41172129E-12
  6.40605403E-01  1.46597358E-12 -4.48681500E-10 -5.73261222E-01 -2.92264203E-11
  1.65471822E-03 -1.36689660E-02  3.58505476E-11 -1.65471815E-03 -1.36689660E-02
 -1.65391874E-11  2.12304745E-10  8.63453561E-01  5.31877799E-03 -5.04280400E-12
  3.58504866E-11  1.28008503E-02  9.53141496E-13  2.48202002E-12 -8.49972857E-03
  4.75211586E-12 -4.23190616E-12 -3.62322148E-02  6.42421203E-12 -3.44558783E-11
  2.38789315E-02 -6.02591600E-12  3.93459909E-03  1.65471815E-03 -9.53128566E-13
  1.64192587E-03  7.75013797E-04 -4.75210236E-12  1.39375768E-03 -1.79323293E-04
 -7.74753309E-12 -2.67056341E-01 -1.25088051E-01  7.86403954E-12  2.76773182E-01
  3.16170641E-12 -3.00453502E-02 -1.36689660E-02 -2.48200478E-12  7.75013797E-04
 -4.97797981E-03 -4.23190518E-12  1.79323293E-04  1.35664595E-03 -1.60176904E-13
 -1.21075995E-01 -1.31427204E-01  2.54921534E-12  1.36502325E-01  1.38386927E-01
  5.31877809E-03 -3.39652812E-12 -2.92264846E-11 -8.49972857E-03  4.75211092E-12
  4.23191311E-12  1.28008503E-02  9.53146854E-13 -2.48202043E-12 -3.62322148E-02
  5.43712196E-12  4.33422792E-11  2.73338307E-03 -2.38744698E-12 -3.51062612E-12
  2.38789315E-02 -3.22619293E-12  3.93459905E-03 -1.65471822E-03 -4.75210826E-12
  1.39375768E-03  1.79323293E-04 -9.53124052E-13  1.64192587E-03 -7.75013797E-04
 -6.04759877E-12 -2.67056341E-01  1.25088051E-01 -2.38747059E-12 -1.66871245E-02
  1.36646823E-02  7.86450604E-12  2.76773182E-01 -3.83862346E-12  3.00453502E-02
 -1.36689660E-02  4.23191664E-12 -1.79323293E-04  1.35664595E-03  2.48199804E-12
 -7.75013797E-04 -4.97797981E-03  4.00132076E-13  1.21075995E-01 -1.31427204E-01
  3.51063725E-12 -1.36646823E-02  1.03305772E-02 -2.54955315E-12 -1.36502325E-01
  1.38386927E-01
Dipole Moment                              R   N=           3
 -6.24631956E-17  2.15444524E-16  5.79370536E-17
Dipole Derivatives                         R   N=          54
 -3.31163504E-01  3.18519860E-11 -1.81981372E-11  1.56100845E-10  1.24888303E-01
 -6.00011225E-09 -5.35463377E-10 -1.09858153E-09  4.11380975E-03  1.65581752E-01
  1.77191531E-11 -2.27112138E-11  5.33588641E-10 -6.24441509E-02 -8.34626535E-02
 -6.18649061E-11 -5.87426433E-02 -2.05691249E-03  1.65581752E-01  2.74492370E-11
  2.79177312E-10  5.36827784E-10 -6.24441503E-02  8.34626409E-02  5.97786664E-11
  5.87426430E-02 -2.05691006E-03 -3.31163504E-01 -1.57021531E-11 -1.42038768E-10
 -1.77645796E-10  1.24888302E-01  2.73143105E-08 -5.32971914E-10  1.57690835E-09
  4.11382686E-03  1.65581752E-01 -2.57683876E-11  3.23313634E-10 -5.22971888E-10
 -6.24441509E-02 -8.34626567E-02  6.19571982E-11 -5.87426433E-02 -2.05691141E-03
  1.65581752E-01 -3.55498183E-11 -1.84085469E-10 -5.25899550E-10 -6.24441508E-02
  8.34626480E-02 -5.72427480E-11  5.87426432E-02 -2.05691403E-03
Polarizability                             R   N=           6
  1.78097927E+01 -1.25311979E-09  2.09376682E+01  1.66988401E-08  6.42728804E-08
  3.47524884E+01
QEq coupling tensors                       R   N=          36
 -2.82438501E-01 -8.18677321E-18  1.00127033E-01  2.58486180E-17 -2.42861287E-17
  1.82311468E-01  1.57035211E-01  6.34575572E-19 -1.77114401E-01  2.42529808E-18
 -1.98119258E-01  2.00791904E-02  1.57035211E-01 -5.26040355E-17 -1.77114401E-01
  3.41227007E-17  1.98119258E-01  2.00791904E-02 -2.82438501E-01 -2.18033832E-17
  1.00127033E-01 -3.94453121E-17  2.43416398E-14  1.82311468E-01  1.57035211E-01
 -8.79999983E-17 -1.77114401E-01 -5.54229206E-17 -1.98119258E-01  2.00791904E-02
  1.57035211E-01 -3.38408749E-17 -1.77114401E-01  2.03643675E-17  1.98119258E-01
  2.00791904E-02
Mulliken Charges                           R   N=           6
 -3.65715170E-01  1.82857585E-01  1.82857585E-01 -3.65715170E-01  1.82857585E-01
  1.82857585E-01
Optimization MaxStp                        I                2
Optimization Job offset                    I                0
Optimization Num results per geometry      I                2
Optimization Num geometry variables        I               18
Opt point       1 Results for each geome   R   N=           2
 -7.85932687E+01  0.00000000E+00
Opt point       1 Geometries               R   N=          18
  0.00000000E+00 -4.93038066E-32  1.26110548E+00 -3.94430453E-31  1.74714955E+00
  2.34349842E+00 -2.13964110E-16 -1.74714955E+00  2.34349842E+00  1.54440879E-16
  1.97215226E-31 -1.26110548E+00 -2.13964110E-16 -1.74714955E+00 -2.34349842E+00
  2.86995784E-16  1.74714955E+00 -2.34349842E+00
Opt point       1 Gradient at each geome   R   N=          18
  3.21469098E-16 -4.75856334E-16  4.58406836E-05  1.61038660E-16 -1.36572810E-04
 -9.88690210E-05 -1.07265184E-15  1.36572810E-04 -9.88690210E-05  1.62534501E-15
 -1.37101430E-15 -4.58406836E-05 -1.90897516E-15  1.36572810E-04  9.88690210E-05
  8.73774240E-16 -1.36572810E-04  9.88690210E-05
Optimization Number of geometries          I   N=           1
           1
