dene                                                                    
Freq      RB3LYP                                                      6-31+G(d)           
Number of atoms                            I                6
Charge                                     I                0
Multiplicity                               I                1
Number of electrons                        I               16
Number of alpha electrons                  I                8
Number of beta electrons                   I                8
Number of basis functions                  I               46
Number of independant functions            I               46
Number of point charges in /Mol/           I                0
Number of translation vectors              I                0
Info1-9                                    I   N=           9
          16          16        1002           0           0         100
           6          18        -502
Num ILSW                                   I              100
ILSW                                       I   N=         100
           0           1           0           0           2           0
           0           0           0           0         402      200000
           0           0          -1           0           0           0
           0      800000           1           0           1           0
           1           0           0           0     1000000           0
           0           0      100000           0          -1           0
           0           0           0           0           0           0
           0           0           0           1           0           0
           0           0           1      720000      810000           0
           0           0           0           0           0           0
           0           0           0           0           0           0
           0           0           0           0           0           0
           0           0           0           0           0           0
           0           0           0           0           0           0
           0           0           0           0           0           0
           0           0           0           0           0           0
           0           0           0           0
Number of contracted shells                I               18
Highest angular momentum                   I                2
Largest degree of contraction              I                6
Number of primitive shells                 I               40
Pure/Cartesian d shells                    I                1
Pure/Cartesian f shells                    I                0
Virial Ratio                               R      2.010989685701551E+00
SCF Energy                                 R     -7.859326870685789E+01
Total Energy                               R     -7.859326870685789E+01
RMS Force                                  R      8.093605142502835E-05
RMS Density                                R      7.652174296031790E-11
Atomic numbers                             I   N=           6
           6           1           1           6           1           1
Nuclear charges                            R   N=           6
  6.00000000E+00  1.00000000E+00  1.00000000E+00  6.00000000E+00  1.00000000E+00
  1.00000000E+00
Current cartesian coordinates              R   N=          18
  0.00000000E+00 -4.93038066E-32  1.26110548E+00 -3.94430453E-31  1.74714955E+00
  2.34349842E+00 -2.13964110E-16 -1.74714955E+00  2.34349842E+00  1.54440879E-16
  1.97215226E-31 -1.26110548E+00 -2.13964110E-16 -1.74714955E+00 -2.34349842E+00
  2.86995784E-16  1.74714955E+00 -2.34349842E+00
Int Atom Types                             I   N=           6
           0           0           0           0           0           0
Force Field                                I                0
MM charges                                 R   N=           6
  0.00000000E+00  0.00000000E+00  0.00000000E+00  0.00000000E+00  0.00000000E+00
  0.00000000E+00
Integer atomic weights                     I   N=           6
          12           1           1          12           1           1
Real atomic weights                        R   N=           6
  1.20000000E+01  1.00782504E+00  1.00782504E+00  1.20000000E+01  1.00782504E+00
  1.00782504E+00
Atom residue info                          I   N=           6
           0           0           0           0           0           0
Atom fragment info                         I   N=           6
           0           0           0           0           0           0
Atom residue num                           I   N=           6
           0           0           0           0           0           0
Nuclear spins                              I   N=           6
           0           1           1           0           1           1
Nuclear ZEff                               R   N=           6
 -3.60000000E+00 -1.00000000E+00 -1.00000000E+00 -3.60000000E+00 -1.00000000E+00
 -1.00000000E+00
Nuclear QMom                               R   N=           6
  0.00000000E+00  0.00000000E+00  0.00000000E+00  0.00000000E+00  0.00000000E+00
  0.00000000E+00
Nuclear GFac                               R   N=           6
  0.00000000E+00  2.79284600E+00  2.79284600E+00  0.00000000E+00  2.79284600E+00
  2.79284600E+00
MicOpt                                     I   N=           6
          -1          -1          -1          -1          -1          -1
Constraint Structure                       R   N=          18
  0.00000000E+00 -4.93038066E-32  1.26110548E+00 -3.94430453E-31  1.74714955E+00
  2.34349842E+00 -2.13964110E-16 -1.74714955E+00  2.34349842E+00  1.54440879E-16
  1.97215226E-31 -1.26110548E+00 -2.13964110E-16 -1.74714955E+00 -2.34349842E+00
  2.86995784E-16  1.74714955E+00 -2.34349842E+00
ONIOM Charges                              I   N=          16
           0           0           0           0           0           0
           0           0           0           0           0           0
           0           0           0           0
ONIOM Multiplicities                       I   N=          16
           1           0           0           0           0           0
           0           0           0           0           0           0
           0           0           0           0
Atom Layers                                I   N=           6
           0           0           0           0           0           0
Atom Modifiers                             I   N=           6
           0           0           0           0           0           0
Int Atom Modified Types                    I   N=           6
           0           0           0           0           0           0
Link Atoms                                 I   N=           6
           0           0           0           0           0           0
Atom Modified MM Charges                   R   N=           6
  0.00000000E+00  0.00000000E+00  0.00000000E+00  0.00000000E+00  0.00000000E+00
  0.00000000E+00
Link Distances                             R   N=          24
  0.00000000E+00  0.00000000E+00  0.00000000E+00  0.00000000E+00  0.00000000E+00
  0.00000000E+00  0.00000000E+00  0.00000000E+00  0.00000000E+00  0.00000000E+00
  0.00000000E+00  0.00000000E+00  0.00000000E+00  0.00000000E+00  0.00000000E+00
  0.00000000E+00  0.00000000E+00  0.00000000E+00  0.00000000E+00  0.00000000E+00
  0.00000000E+00  0.00000000E+00  0.00000000E+00  0.00000000E+00
MxBond                                     I                3
NBond                                      I   N=           6
           3           1           1           3           1           1
IBond                                      I   N=          18
           2           3           4           1           0           0
           1           0           0           1           5           6
           4           0           0           4           0           0
RBond                                      R   N=          18
  1.00000000E+00  1.00000000E+00  2.00000000E+00  1.00000000E+00  0.00000000E+00
  0.00000000E+00  1.00000000E+00  0.00000000E+00  0.00000000E+00  2.00000000E+00
  1.00000000E+00  1.00000000E+00  1.00000000E+00  0.00000000E+00  0.00000000E+00
  1.00000000E+00  0.00000000E+00  0.00000000E+00
Shell types                                I   N=          18
           0          -1          -1          -1           2           0
           0           0           0           0          -1          -1
          -1           2           0           0           0           0
Number of primitives per shell             I   N=          18
           6           3           1           1           1           3
           1           3           1           6           3           1
           1           1           3           1           3           1
Shell to atom map                          I   N=          18
           1           1           1           1           1           2
           2           3           3           4           4           4
           4           4           5           5           6           6
Primitive exponents                        R   N=          40
  3.04752488E+03  4.57369518E+02  1.03948685E+02  2.92101553E+01  9.28666296E+00
  3.16392696E+00  7.86827235E+00  1.88128854E+00  5.44249258E-01  1.68714478E-01
  4.38000000E-02  8.00000000E-01  1.87311370E+01  2.82539436E+00  6.40121692E-01
  1.61277759E-01  1.87311370E+01  2.82539436E+00  6.40121692E-01  1.61277759E-01
  3.04752488E+03  4.57369518E+02  1.03948685E+02  2.92101553E+01  9.28666296E+00
  3.16392696E+00  7.86827235E+00  1.88128854E+00  5.44249258E-01  1.68714478E-01
  4.38000000E-02  8.00000000E-01  1.87311370E+01  2.82539436E+00  6.40121692E-01
  1.61277759E-01  1.87311370E+01  2.82539436E+00  6.40121692E-01  1.61277759E-01
Contraction coefficients                   R   N=          40
  1.83473713E-03  1.40373228E-02  6.88426223E-02  2.32184443E-01  4.67941348E-01
  3.62311985E-01 -1.19332420E-01 -1.60854152E-01  1.14345644E+00  1.00000000E+00
  1.00000000E+00  1.00000000E+00  3.34946043E-02  2.34726953E-01  8.13757326E-01
  1.00000000E+00  3.34946043E-02  2.34726953E-01  8.13757326E-01  1.00000000E+00
  1.83473713E-03  1.40373228E-02  6.88426223E-02  2.32184443E-01  4.67941348E-01
  3.62311985E-01 -1.19332420E-01 -1.60854152E-01  1.14345644E+00  1.00000000E+00
  1.00000000E+00  1.00000000E+00  3.34946043E-02  2.34726953E-01  8.13757326E-01
  1.00000000E+00  3.34946043E-02  2.34726953E-01  8.13757326E-01  1.00000000E+00
P(S=P) Contraction coefficients            R   N=          40
  0.00000000E+00  0.00000000E+00  0.00000000E+00  0.00000000E+00  0.00000000E+00
  0.00000000E+00  6.89990666E-02  3.16423961E-01  7.44308291E-01  1.00000000E+00
  1.00000000E+00  0.00000000E+00  0.00000000E+00  0.00000000E+00  0.00000000E+00
  0.00000000E+00  0.00000000E+00  0.00000000E+00  0.00000000E+00  0.00000000E+00
  0.00000000E+00  0.00000000E+00  0.00000000E+00  0.00000000E+00  0.00000000E+00
  0.00000000E+00  6.89990666E-02  3.16423961E-01  7.44308291E-01  1.00000000E+00
  1.00000000E+00  0.00000000E+00  0.00000000E+00  0.00000000E+00  0.00000000E+00
  0.00000000E+00  0.00000000E+00  0.00000000E+00  0.00000000E+00  0.00000000E+00
Coordinates of each shell                  R   N=          54
  0.00000000E+00 -4.93038066E-32  1.26110548E+00  0.00000000E+00 -4.93038066E-32
  1.26110548E+00  0.00000000E+00 -4.93038066E-32  1.26110548E+00  0.00000000E+00
 -4.93038066E-32  1.26110548E+00  0.00000000E+00 -4.93038066E-32  1.26110548E+00
 -3.94430453E-31  1.74714955E+00  2.34349842E+00 -3.94430453E-31  1.74714955E+00
  2.34349842E+00 -2.13964110E-16 -1.74714955E+00  2.34349842E+00 -2.13964110E-16
 -1.74714955E+00  2.34349842E+00  1.54440879E-16  1.97215226E-31 -1.26110548E+00
  1.54440879E-16  1.97215226E-31 -1.26110548E+00  1.54440879E-16  1.97215226E-31
 -1.26110548E+00  1.54440879E-16  1.97215226E-31 -1.26110548E+00  1.54440879E-16
  1.97215226E-31 -1.26110548E+00 -2.13964110E-16 -1.74714955E+00 -2.34349842E+00
 -2.13964110E-16 -1.74714955E+00 -2.34349842E+00  2.86995784E-16  1.74714955E+00
 -2.34349842E+00  2.86995784E-16  1.74714955E+00 -2.34349842E+00
Alpha Orbital Energies                     R   N=          46
 -1.01957203E+01 -1.01948475E+01 -7.64820441E-01 -5.86300940E-01 -4.73808959E-01
 -4.25935762E-01 -3.62284968E-01 -2.77447493E-01 -7.95001844E-03  2.50815964E-02
  3.28262975E-02  4.70842682E-02  6.93647778E-02  8.71130820E-02  8.79183998E-02
  1.28356140E-01  1.57789231E-01  1.80297682E-01  1.91528801E-01  2.47379210E-01
  3.45083173E-01  3.51666608E-01  5.76972847E-01  6.56247914E-01  6.73879833E-01
  7.20454982E-01  7.63207929E-01  8.17823079E-01  8.99608543E-01  9.40560117E-01
  9.72846117E-01  1.01019758E+00  1.16558521E+00  1.21743344E+00  1.45049012E+00
  1.53541050E+00  1.82049564E+00  1.88654551E+00  2.01479018E+00  2.11762909E+00
  2.30060706E+00  2.38080047E+00  2.69413968E+00  2.70989852E+00  4.12379356E+00
  4.25304184E+00
Alpha MO coefficients                      R   N=        2116
  7.01825022E-01  3.45976002E-02  0.00000000E+00  0.00000000E+00  1.75753258E-04
 -6.30110617E-03  0.00000000E+00  0.00000000E+00 -2.99521658E-04  6.01926316E-04
  0.00000000E+00  0.00000000E+00 -7.72716756E-04 -6.93124027E-03 -6.72072578E-03
 -6.66427833E-03  0.00000000E+00  0.00000000E+00  0.00000000E+00 -2.03099677E-04
  1.03262802E-03 -2.03099677E-04  1.03262802E-03  7.01825022E-01  3.45976002E-02
  0.00000000E+00  0.00000000E+00 -1.75753258E-04 -6.30110617E-03  0.00000000E+00
  0.00000000E+00  2.99521658E-04  6.01926316E-04  0.00000000E+00  0.00000000E+00
  7.72716756E-04 -6.93124027E-03 -6.72072578E-03 -6.66427833E-03  0.00000000E+00
  0.00000000E+00  0.00000000E+00 -2.03099677E-04  1.03262802E-03 -2.03099677E-04
  1.03262802E-03  7.02146807E-01  3.53076321E-02  0.00000000E+00  0.00000000E+00
 -3.41818989E-04 -1.30732494E-02  0.00000000E+00  0.00000000E+00  2.35310406E-03
  1.96710018E-02  0.00000000E+00  0.00000000E+00 -5.26436290E-03 -6.79138088E-03
 -6.53057058E-03 -6.25626348E-03  0.00000000E+00  0.00000000E+00  0.00000000E+00
 -1.10620151E-04  1.19316168E-03 -1.10620151E-04  1.19316168E-03 -7.02146807E-01
 -3.53076321E-02  0.00000000E+00  0.00000000E+00 -3.41818989E-04  1.30732494E-02
  0.00000000E+00  0.00000000E+00  2.35310406E-03 -1.96710018E-02  0.00000000E+00
  0.00000000E+00 -5.26436290E-03  6.79138088E-03  6.53057058E-03  6.25626348E-03
  0.00000000E+00  0.00000000E+00  0.00000000E+00  1.10620151E-04 -1.19316168E-03
  1.10620151E-04 -1.19316168E-03 -1.60218028E-01  3.11656464E-01  0.00000000E+00
  0.00000000E+00 -1.01617368E-01  2.32478301E-01  0.00000000E+00  0.00000000E+00
 -3.82450407E-03  3.48640448E-03  0.00000000E+00  0.00000000E+00 -9.25832152E-04
 -1.66243101E-02  4.59085849E-05  8.25172753E-03  0.00000000E+00  0.00000000E+00
  0.00000000E+00  8.42046810E-02  1.44103835E-02  8.42046810E-02  1.44103835E-02
 -1.60218028E-01  3.11656464E-01  0.00000000E+00  0.00000000E+00  1.01617368E-01
  2.32478301E-01  0.00000000E+00  0.00000000E+00  3.82450407E-03  3.48640448E-03
  0.00000000E+00  0.00000000E+00  9.25832152E-04 -1.66243101E-02  4.59085849E-05
  8.25172753E-03  0.00000000E+00  0.00000000E+00  0.00000000E+00  8.42046810E-02
  1.44103835E-02  8.42046810E-02  1.44103835E-02 -1.23587442E-01  2.48589443E-01
  0.00000000E+00  0.00000000E+00  1.72107054E-01  2.46336410E-01  0.00000000E+00
  0.00000000E+00  6.35758868E-02 -3.01950914E-02  0.00000000E+00  0.00000000E+00
  1.63618537E-02 -1.15229113E-02  1.35089528E-02 -8.04101463E-03  0.00000000E+00
  0.00000000E+00  0.00000000E+00  1.46397002E-01  5.80154368E-02  1.46397002E-01
  5.80154368E-02  1.23587442E-01 -2.48589443E-01  0.00000000E+00  0.00000000E+00
  1.72107054E-01 -2.46336410E-01  0.00000000E+00  0.00000000E+00  6.35758868E-02
  3.01950914E-02  0.00000000E+00  0.00000000E+00  1.63618537E-02  1.15229113E-02
 -1.35089528E-02  8.04101463E-03  0.00000000E+00  0.00000000E+00  0.00000000E+00
 -1.46397002E-01 -5.80154368E-02 -1.46397002E-01 -5.80154368E-02  0.00000000E+00
  0.00000000E+00  0.00000000E+00  3.32956248E-01  0.00000000E+00  0.00000000E+00
  0.00000000E+00  1.24096744E-01  0.00000000E+00  0.00000000E+00  0.00000000E+00
  1.34018415E-02  0.00000000E+00  0.00000000E+00  0.00000000E+00  0.00000000E+00
  0.00000000E+00  0.00000000E+00  5.95040759E-03  1.56547178E-01  9.65386512E-02
 -1.56547178E-01 -9.65386512E-02  0.00000000E+00  0.00000000E+00  0.00000000E+00
  3.32956248E-01  0.00000000E+00  0.00000000E+00  0.00000000E+00  1.24096744E-01
  0.00000000E+00  0.00000000E+00  0.00000000E+00  1.34018415E-02  0.00000000E+00
  0.00000000E+00  0.00000000E+00  0.00000000E+00  0.00000000E+00  0.00000000E+00
 -5.95040759E-03 -1.56547178E-01 -9.65386512E-02  1.56547178E-01  9.65386512E-02
  1.33709596E-02 -3.19927138E-02  0.00000000E+00  0.00000000E+00  4.15911526E-01
  6.62680464E-03  0.00000000E+00  0.00000000E+00  1.38109378E-01  1.75760425E-02
  0.00000000E+00  0.00000000E+00  3.12514783E-02  1.25818424E-04  1.88940826E-02
 -5.76684215E-03  0.00000000E+00  0.00000000E+00  0.00000000E+00  1.26185989E-01
  9.64626544E-02  1.26185989E-01  9.64626544E-02  1.33709596E-02 -3.19927138E-02
  0.00000000E+00  0.00000000E+00 -4.15911526E-01  6.62680464E-03  0.00000000E+00
  0.00000000E+00 -1.38109378E-01  1.75760425E-02  0.00000000E+00  0.00000000E+00
 -3.12514783E-02  1.25818424E-04  1.88940826E-02 -5.76684215E-03  0.00000000E+00
  0.00000000E+00  0.00000000E+00  1.26185989E-01  9.64626544E-02  1.26185989E-01
  9.64626544E-02  0.00000000E+00  0.00000000E+00  0.00000000E+00  3.10862348E-01
  0.00000000E+00  0.00000000E+00  0.00000000E+00  1.37126981E-01  0.00000000E+00
  0.00000000E+00  0.00000000E+00  4.36834082E-02  0.00000000E+00  0.00000000E+00
  0.00000000E+00  0.00000000E+00  0.00000000E+00  0.00000000E+00  3.04637842E-02
  1.97643083E-01  1.72773277E-01 -1.97643083E-01 -1.72773277E-01  0.00000000E+00
  0.00000000E+00  0.00000000E+00 -3.10862348E-01  0.00000000E+00  0.00000000E+00
  0.00000000E+00 -1.37126981E-01  0.00000000E+00  0.00000000E+00  0.00000000E+00
 -4.36834082E-02  0.00000000E+00  0.00000000E+00  0.00000000E+00  0.00000000E+00
  0.00000000E+00  0.00000000E+00  3.04637842E-02  1.97643083E-01  1.72773277E-01
 -1.97643083E-01 -1.72773277E-01  0.00000000E+00  0.00000000E+00  4.02460677E-01
  0.00000000E+00  0.00000000E+00  0.00000000E+00  2.52796368E-01  0.00000000E+00
  0.00000000E+00  0.00000000E+00  5.40355085E-02  0.00000000E+00  0.00000000E+00
  0.00000000E+00  0.00000000E+00  0.00000000E+00  0.00000000E+00 -1.65467234E-02
  0.00000000E+00  0.00000000E+00  0.00000000E+00  0.00000000E+00  0.00000000E+00
  0.00000000E+00  0.00000000E+00  4.02460677E-01  0.00000000E+00  0.00000000E+00
  0.00000000E+00  2.52796368E-01  0.00000000E+00  0.00000000E+00  0.00000000E+00
  5.40355085E-02  0.00000000E+00  0.00000000E+00  0.00000000E+00  0.00000000E+00
  0.00000000E+00  0.00000000E+00  1.65467234E-02  0.00000000E+00  0.00000000E+00
  0.00000000E+00  0.00000000E+00  0.00000000E+00  0.00000000E+00  0.00000000E+00
  3.73189578E-01  0.00000000E+00  0.00000000E+00  0.00000000E+00  4.47524218E-01
  0.00000000E+00  0.00000000E+00  0.00000000E+00  7.65495086E-01  0.00000000E+00
  0.00000000E+00  0.00000000E+00  0.00000000E+00  0.00000000E+00  0.00000000E+00
  2.45970041E-02  0.00000000E+00  0.00000000E+00  0.00000000E+00  0.00000000E+00
  0.00000000E+00  0.00000000E+00  0.00000000E+00 -3.73189578E-01  0.00000000E+00
  0.00000000E+00  0.00000000E+00 -4.47524218E-01  0.00000000E+00  0.00000000E+00
  0.00000000E+00 -7.65495086E-01  0.00000000E+00  0.00000000E+00  0.00000000E+00
  0.00000000E+00  0.00000000E+00  0.00000000E+00  2.45970041E-02  0.00000000E+00
  0.00000000E+00  0.00000000E+00  0.00000000E+00  0.00000000E+00  5.01192341E-02
 -8.44605809E-02  0.00000000E+00  0.00000000E+00 -1.18994864E-01 -5.03014692E-01
  0.00000000E+00  0.00000000E+00 -1.50936416E-01  8.24588827E-01  0.00000000E+00
  0.00000000E+00  4.36600590E-01  1.42911837E-02 -1.15591812E-03 -1.34928668E-04
  0.00000000E+00  0.00000000E+00  0.00000000E+00 -5.55276419E-03 -1.81685662E-02
 -5.55276419E-03 -1.81685662E-02  5.01192341E-02 -8.44605809E-02  0.00000000E+00
  0.00000000E+00  1.18994864E-01 -5.03014692E-01  0.00000000E+00  0.00000000E+00
  1.50936416E-01  8.24588827E-01  0.00000000E+00  0.00000000E+00 -4.36600590E-01
  1.42911837E-02 -1.15591812E-03 -1.34928668E-04  0.00000000E+00  0.00000000E+00
  0.00000000E+00 -5.55276419E-03 -1.81685662E-02 -5.55276419E-03 -1.81685662E-02
 -5.02203721E-02  1.08295139E-01  0.00000000E+00  0.00000000E+00  5.10071765E-02
  3.75189057E-01  0.00000000E+00  0.00000000E+00  6.86861155E-02  9.92012904E+00
  0.00000000E+00  0.00000000E+00 -3.34923362E+00 -2.97505138E-03  9.42344269E-03
 -1.11493608E-02  0.00000000E+00  0.00000000E+00  0.00000000E+00 -1.28591399E-03
 -7.77358042E-02 -1.28591399E-03 -7.77358042E-02  5.02203721E-02 -1.08295139E-01
  0.00000000E+00  0.00000000E+00  5.10071765E-02 -3.75189057E-01  0.00000000E+00
  0.00000000E+00  6.86861155E-02 -9.92012904E+00  0.00000000E+00  0.00000000E+00
 -3.34923362E+00  2.97505138E-03 -9.42344269E-03  1.11493608E-02  0.00000000E+00
  0.00000000E+00  0.00000000E+00  1.28591399E-03  7.77358042E-02  1.28591399E-03
  7.77358042E-02  0.00000000E+00  0.00000000E+00  0.00000000E+00 -1.82587742E-01
  0.00000000E+00  0.00000000E+00  0.00000000E+00 -2.66831171E-01  0.00000000E+00
  0.00000000E+00  0.00000000E+00  5.72642615E-01  0.00000000E+00  0.00000000E+00
  0.00000000E+00  0.00000000E+00  0.00000000E+00  0.00000000E+00  3.25467045E-03
  1.21534169E-02  7.08635318E-02 -1.21534169E-02 -7.08635318E-02  0.00000000E+00
  0.00000000E+00  0.00000000E+00 -1.82587742E-01  0.00000000E+00  0.00000000E+00
  0.00000000E+00 -2.66831171E-01  0.00000000E+00  0.00000000E+00  0.00000000E+00
  5.72642615E-01  0.00000000E+00  0.00000000E+00  0.00000000E+00  0.00000000E+00
  0.00000000E+00  0.00000000E+00 -3.25467045E-03 -1.21534169E-02 -7.08635318E-02
  1.21534169E-02  7.08635318E-02  0.00000000E+00  0.00000000E+00 -1.57579945E-01
  0.00000000E+00  0.00000000E+00  0.00000000E+00 -2.34812592E-01  0.00000000E+00
  0.00000000E+00  0.00000000E+00  6.02344285E-01  0.00000000E+00  0.00000000E+00
  0.00000000E+00  0.00000000E+00  0.00000000E+00  0.00000000E+00  1.13522301E-02
  0.00000000E+00  0.00000000E+00  0.00000000E+00  0.00000000E+00  0.00000000E+00
  0.00000000E+00  0.00000000E+00 -1.57579945E-01  0.00000000E+00  0.00000000E+00
  0.00000000E+00 -2.34812592E-01  0.00000000E+00  0.00000000E+00  0.00000000E+00
  6.02344285E-01  0.00000000E+00  0.00000000E+00  0.00000000E+00  0.00000000E+00
  0.00000000E+00  0.00000000E+00 -1.13522301E-02  0.00000000E+00  0.00000000E+00
  0.00000000E+00  0.00000000E+00  0.00000000E+00 -3.58478009E-02  4.09568743E-02
  0.00000000E+00  0.00000000E+00 -4.57066125E-02  5.23016956E-01  0.00000000E+00
  0.00000000E+00  4.62383215E-02 -1.86857208E-02  0.00000000E+00  0.00000000E+00
  1.46152417E+00 -1.69360957E-02 -2.02023337E-02  1.11973889E-02  0.00000000E+00
  0.00000000E+00  0.00000000E+00 -1.88097117E-02 -7.74541937E-02 -1.88097117E-02
 -7.74541937E-02 -3.58478009E-02  4.09568743E-02  0.00000000E+00  0.00000000E+00
  4.57066125E-02  5.23016956E-01  0.00000000E+00  0.00000000E+00 -4.62383215E-02
 -1.86857208E-02  0.00000000E+00  0.00000000E+00 -1.46152417E+00 -1.69360957E-02
 -2.02023337E-02  1.11973889E-02  0.00000000E+00  0.00000000E+00  0.00000000E+00
 -1.88097117E-02 -7.74541937E-02 -1.88097117E-02 -7.74541937E-02  0.00000000E+00
  0.00000000E+00  0.00000000E+00 -1.52417783E-01  0.00000000E+00  0.00000000E+00
  0.00000000E+00 -8.70653682E-02  0.00000000E+00  0.00000000E+00  0.00000000E+00
  2.25839608E+00  0.00000000E+00  0.00000000E+00  0.00000000E+00  0.00000000E+00
  0.00000000E+00  0.00000000E+00 -1.14904793E-02 -1.80903584E-02 -1.75229239E-01
  1.80903584E-02  1.75229239E-01  0.00000000E+00  0.00000000E+00  0.00000000E+00
  1.52417783E-01  0.00000000E+00  0.00000000E+00  0.00000000E+00  8.70653682E-02
  0.00000000E+00  0.00000000E+00  0.00000000E+00 -2.25839608E+00  0.00000000E+00
  0.00000000E+00  0.00000000E+00  0.00000000E+00  0.00000000E+00  0.00000000E+00
 -1.14904793E-02 -1.80903584E-02 -1.75229239E-01  1.80903584E-02  1.75229239E-01
  0.00000000E+00  0.00000000E+00 -2.68027959E-01  0.00000000E+00  0.00000000E+00
  0.00000000E+00 -4.87962452E-01  0.00000000E+00  0.00000000E+00  0.00000000E+00
  1.99925130E+00  0.00000000E+00  0.00000000E+00  0.00000000E+00  0.00000000E+00
  0.00000000E+00  0.00000000E+00 -9.52788805E-03  0.00000000E+00  0.00000000E+00
  0.00000000E+00  0.00000000E+00  0.00000000E+00  0.00000000E+00  0.00000000E+00
  2.68027959E-01  0.00000000E+00  0.00000000E+00  0.00000000E+00  4.87962452E-01
  0.00000000E+00  0.00000000E+00  0.00000000E+00 -1.99925130E+00  0.00000000E+00
  0.00000000E+00  0.00000000E+00  0.00000000E+00  0.00000000E+00  0.00000000E+00
 -9.52788805E-03  0.00000000E+00  0.00000000E+00  0.00000000E+00  0.00000000E+00
  0.00000000E+00  5.41980962E-02 -7.94935939E-02  0.00000000E+00  0.00000000E+00
 -8.76660767E-02 -5.41140615E-01  0.00000000E+00  0.00000000E+00 -4.19186015E-01
  3.57382975E+01  0.00000000E+00  0.00000000E+00 -9.70837224E+00  1.03976217E-02
  4.68503099E-03  6.80440206E-03  0.00000000E+00  0.00000000E+00  0.00000000E+00
  4.38092171E-02  1.25778065E-01  4.38092171E-02  1.25778065E-01 -5.41980962E-02
  7.94935939E-02  0.00000000E+00  0.00000000E+00 -8.76660767E-02  5.41140615E-01
  0.00000000E+00  0.00000000E+00 -4.19186015E-01 -3.57382975E+01  0.00000000E+00
  0.00000000E+00 -9.70837224E+00 -1.03976217E-02 -4.68503099E-03 -6.80440206E-03
  0.00000000E+00  0.00000000E+00  0.00000000E+00 -4.38092171E-02 -1.25778065E-01
 -4.38092171E-02 -1.25778065E-01 -6.06245165E-02  4.48344541E-02  0.00000000E+00
  0.00000000E+00  1.62972378E-01  1.34017144E+00  0.00000000E+00  0.00000000E+00
  6.63090259E-01  6.56172657E-01  0.00000000E+00  0.00000000E+00 -7.59270325E-02
  1.52532430E-02 -2.80517008E-02 -3.49914262E-03  0.00000000E+00  0.00000000E+00
  0.00000000E+00 -9.84816902E-02 -1.26285220E+00 -9.84816902E-02 -1.26285220E+00
 -6.06245165E-02  4.48344541E-02  0.00000000E+00  0.00000000E+00 -1.62972378E-01
  1.34017144E+00  0.00000000E+00  0.00000000E+00 -6.63090259E-01  6.56172657E-01
  0.00000000E+00  0.00000000E+00  7.59270325E-02  1.52532430E-02 -2.80517008E-02
 -3.49914262E-03  0.00000000E+00  0.00000000E+00  0.00000000E+00 -9.84816902E-02
 -1.26285220E+00 -9.84816902E-02 -1.26285220E+00  0.00000000E+00  0.00000000E+00
  0.00000000E+00 -2.24480506E-01  0.00000000E+00  0.00000000E+00  0.00000000E+00
 -7.31541252E-01  0.00000000E+00  0.00000000E+00  0.00000000E+00 -4.47469717E-01
  0.00000000E+00  0.00000000E+00  0.00000000E+00  0.00000000E+00  0.00000000E+00
  0.00000000E+00  4.13409651E-02  1.39173162E-01  1.18161603E+00 -1.39173162E-01
 -1.18161603E+00  0.00000000E+00  0.00000000E+00  0.00000000E+00 -2.24480506E-01
  0.00000000E+00  0.00000000E+00  0.00000000E+00 -7.31541252E-01  0.00000000E+00
  0.00000000E+00  0.00000000E+00 -4.47469717E-01  0.00000000E+00  0.00000000E+00
  0.00000000E+00  0.00000000E+00  0.00000000E+00  0.00000000E+00 -4.13409651E-02
 -1.39173162E-01 -1.18161603E+00  1.39173162E-01  1.18161603E+00 -7.86552640E-02
  9.89006961E-02  0.00000000E+00  0.00000000E+00  7.90806431E-02  1.31789553E+00
  0.00000000E+00  0.00000000E+00  4.57648705E-01  2.07571699E+01  0.00000000E+00
  0.00000000E+00 -5.09233058E+00  9.42250407E-03 -1.74544753E-02 -7.99351209E-03
  0.00000000E+00  0.00000000E+00  0.00000000E+00 -1.21318605E-01 -1.43758578E+00
 -1.21318605E-01 -1.43758578E+00  7.86552640E-02 -9.89006961E-02  0.00000000E+00
  0.00000000E+00  7.90806431E-02 -1.31789553E+00  0.00000000E+00  0.00000000E+00
  4.57648705E-01 -2.07571699E+01  0.00000000E+00  0.00000000E+00 -5.09233058E+00
 -9.42250407E-03  1.74544753E-02  7.99351209E-03  0.00000000E+00  0.00000000E+00
  0.00000000E+00  1.21318605E-01  1.43758578E+00  1.21318605E-01  1.43758578E+00
  0.00000000E+00  0.00000000E+00  0.00000000E+00 -3.77247149E-01  0.00000000E+00
  0.00000000E+00  0.00000000E+00 -1.86036623E+00  0.00000000E+00  0.00000000E+00
  0.00000000E+00 -1.86128837E+00  0.00000000E+00  0.00000000E+00  0.00000000E+00
  0.00000000E+00  0.00000000E+00  0.00000000E+00 -1.45623028E-02  2.61703158E-02
  1.93224514E+00 -2.61703158E-02 -1.93224514E+00  0.00000000E+00  0.00000000E+00
  0.00000000E+00  3.77247149E-01  0.00000000E+00  0.00000000E+00  0.00000000E+00
  1.86036623E+00  0.00000000E+00  0.00000000E+00  0.00000000E+00  1.86128837E+00
  0.00000000E+00  0.00000000E+00  0.00000000E+00  0.00000000E+00  0.00000000E+00
  0.00000000E+00 -1.45623028E-02  2.61703158E-02  1.93224514E+00 -2.61703158E-02
 -1.93224514E+00  1.01413026E-01 -8.96948666E-02  0.00000000E+00  0.00000000E+00
  2.13978875E-01 -3.40202079E+00  0.00000000E+00  0.00000000E+00  2.77575943E+00
  6.23197729E+00  0.00000000E+00  0.00000000E+00 -1.95088498E+00  2.50332163E-03
 -2.38461036E-02  3.18098553E-02  0.00000000E+00  0.00000000E+00  0.00000000E+00
 -2.81784621E-02 -2.63531128E-01 -2.81784621E-02 -2.63531128E-01 -1.01413026E-01
  8.96948666E-02  0.00000000E+00  0.00000000E+00  2.13978875E-01  3.40202079E+00
  0.00000000E+00  0.00000000E+00  2.77575943E+00 -6.23197729E+00  0.00000000E+00
  0.00000000E+00 -1.95088498E+00 -2.50332163E-03  2.38461036E-02 -3.18098553E-02
  0.00000000E+00  0.00000000E+00  0.00000000E+00  2.81784621E-02  2.63531128E-01
  2.81784621E-02  2.63531128E-01  2.81491202E-02  6.39904706E-02  0.00000000E+00
  0.00000000E+00 -6.04130961E-01  4.29285522E-01  0.00000000E+00  0.00000000E+00
  1.24607215E+00 -1.01419166E-01  0.00000000E+00  0.00000000E+00 -7.65342461E-01
 -9.12150510E-03 -6.00255528E-02  7.34903136E-02  0.00000000E+00  0.00000000E+00
  0.00000000E+00 -6.47766253E-02 -2.04935066E-01 -6.47766253E-02 -2.04935066E-01
  2.81491202E-02  6.39904706E-02  0.00000000E+00  0.00000000E+00  6.04130961E-01