product                                                                 
Freq      UB3LYP                                                      6-31+G(d)           
Number of atoms                            I               10
Charge                                     I                0
Multiplicity                               I                2
Number of electrons                        I               25
Number of alpha electrons                  I               13
Number of beta electrons                   I               12
Number of basis functions                  I               71
Number of independant functions            I               71
Number of point charges in /Mol/           I                0
Number of translation vectors              I                0
Info1-9                                    I   N=           9
          20          20        1002           0           0         100
           6          18        -502
Num ILSW                                   I              100
ILSW                                       I   N=         100
           1           1           0           0           2           0
           0           0           0           0         402      200000
           0           0          -1           0           0           0
           0      800000           1           0           1           0
           1           0           0           0     1000000           0
           0           0      100000           0          -1           0
           0           0           0           0           0           0
           0           0           0           1           0           0
           0           0           1      720000      810000           0
           0           0           0           0           0           0
           0           0           0           0           0           0
           0           0           0           0           0           0
           0           0           0           0           0           0
           0           0           0           0           0           0
           0           0           0           0           0           0
           0           0           0           0           0           0
           0           0           0           0
Number of contracted shells                I               29
Highest angular momentum                   I                2
Largest degree of contraction              I                6
Number of primitive shells                 I               64
Pure/Cartesian d shells                    I                1
Pure/Cartesian f shells                    I                0
Virial Ratio                               R      2.010693086357708E+00
SCF Energy                                 R     -1.184774441720399E+02
Total Energy                               R     -1.184774441720399E+02
S**2                                       R      7.538463265957951E-01
S**2 after annihilation                    R      7.500097954694081E-01
RMS Force                                  R      2.897177245917450E-06
RMS Density                                R      2.742483663602565E-09
Atomic numbers                             I   N=          10
           6           1           1           1           6           1
           1           6           1           1
Nuclear charges                            R   N=          10
  6.00000000E+00  1.00000000E+00  1.00000000E+00  1.00000000E+00  6.00000000E+00
  1.00000000E+00  1.00000000E+00  6.00000000E+00  1.00000000E+00  1.00000000E+00
Current cartesian coordinates              R   N=          30
 -2.32299509E+00 -4.62202827E-01 -7.52324983E-02 -2.43104135E+00 -1.88645074E+00
  1.42810358E+00 -2.46261924E+00 -1.44964135E+00 -1.89146790E+00 -3.97217575E+00
  7.78558665E-01  1.09544493E-01  1.51451363E-01  1.04713442E+00  1.01377840E-01
  1.49775756E-01  2.11673135E+00  1.89960027E+00  1.99861584E-01  2.50021528E+00
 -1.38436570E+00  2.46884857E+00 -5.54144469E-01 -5.66800199E-02  2.45599361E+00
 -2.48933307E+00  6.33487827E-01  4.27637633E+00  2.45197123E-01 -6.11694506E-01
Int Atom Types                             I   N=          10
           0           0           0           0           0           0
           0           0           0           0
Force Field                                I                0
MM charges                                 R   N=          10
  0.00000000E+00  0.00000000E+00  0.00000000E+00  0.00000000E+00  0.00000000E+00
  0.00000000E+00  0.00000000E+00  0.00000000E+00  0.00000000E+00  0.00000000E+00
Integer atomic weights                     I   N=          10
          12           1           1           1          12           1
           1          12           1           1
Real atomic weights                        R   N=          10
  1.20000000E+01  1.00782504E+00  1.00782504E+00  1.00782504E+00  1.20000000E+01
  1.00782504E+00  1.00782504E+00  1.20000000E+01  1.00782504E+00  1.00782504E+00
Atom residue info                          I   N=          10
           0           0           0           0           0           0
           0           0           0           0
Atom fragment info                         I   N=          10
           0           0           0           0           0           0
           0           0           0           0
Atom residue num                           I   N=          10
           0           0           0           0           0           0
           0           0           0           0
Nuclear spins                              I   N=          10
           0           1           1           1           0           1
           1           0           1           1
Nuclear ZEff                               R   N=          10
 -3.60000000E+00 -1.00000000E+00 -1.00000000E+00 -1.00000000E+00 -3.60000000E+00
 -1.00000000E+00 -1.00000000E+00 -3.60000000E+00 -1.00000000E+00 -1.00000000E+00
Nuclear QMom                               R   N=          10
  0.00000000E+00  0.00000000E+00  0.00000000E+00  0.00000000E+00  0.00000000E+00
  0.00000000E+00  0.00000000E+00  0.00000000E+00  0.00000000E+00  0.00000000E+00
Nuclear GFac                               R   N=          10
  0.00000000E+00  2.79284600E+00  2.79284600E+00  2.79284600E+00  0.00000000E+00
  2.79284600E+00  2.79284600E+00  0.00000000E+00  2.79284600E+00  2.79284600E+00
MicOpt                                     I   N=          10
          -1          -1          -1          -1          -1          -1
          -1          -1          -1          -1
Constraint Structure                       R   N=          30
 -2.32299509E+00 -4.62202827E-01 -7.52324983E-02 -2.43104135E+00 -1.88645074E+00
  1.42810358E+00 -2.46261924E+00 -1.44964135E+00 -1.89146790E+00 -3.97217575E+00
  7.78558665E-01  1.09544493E-01  1.51451363E-01  1.04713442E+00  1.01377840E-01
  1.49775756E-01  2.11673135E+00  1.89960027E+00  1.99861584E-01  2.50021528E+00
 -1.38436570E+00  2.46884857E+00 -5.54144469E-01 -5.66800199E-02  2.45599361E+00
 -2.48933307E+00  6.33487827E-01  4.27637633E+00  2.45197123E-01 -6.11694506E-01
ONIOM Charges                              I   N=          16
           0           0           0           0           0           0
           0           0           0           0           0           0
           0           0           0           0
ONIOM Multiplicities                       I   N=          16
           2           0           0           0           0           0
           0           0           0           0           0           0
           0           0           0           0
Atom Layers                                I   N=          10
           0           0           0           0           0           0
           0           0           0           0
Atom Modifiers                             I   N=          10
           0           0           0           0           0           0
           0           0           0           0
Int Atom Modified Types                    I   N=          10
           0           0           0           0           0           0
           0           0           0           0
Link Atoms                                 I   N=          10
           0           0           0           0           0           0
           0           0           0           0
Atom Modified MM Charges                   R   N=          10
  0.00000000E+00  0.00000000E+00  0.00000000E+00  0.00000000E+00  0.00000000E+00
  0.00000000E+00  0.00000000E+00  0.00000000E+00  0.00000000E+00  0.00000000E+00
Link Distances                             R   N=          40
  0.00000000E+00  0.00000000E+00  0.00000000E+00  0.00000000E+00  0.00000000E+00
  0.00000000E+00  0.00000000E+00  0.00000000E+00  0.00000000E+00  0.00000000E+00
  0.00000000E+00  0.00000000E+00  0.00000000E+00  0.00000000E+00  0.00000000E+00
  0.00000000E+00  0.00000000E+00  0.00000000E+00  0.00000000E+00  0.00000000E+00
  0.00000000E+00  0.00000000E+00  0.00000000E+00  0.00000000E+00  0.00000000E+00
  0.00000000E+00  0.00000000E+00  0.00000000E+00  0.00000000E+00  0.00000000E+00
  0.00000000E+00  0.00000000E+00  0.00000000E+00  0.00000000E+00  0.00000000E+00
  0.00000000E+00  0.00000000E+00  0.00000000E+00  0.00000000E+00  0.00000000E+00
MxBond                                     I                4
NBond                                      I   N=          10
           4           1           1           1           4           1
           1           3           1           1
IBond                                      I   N=          40
           2           3           4           5           1           0
           0           0           1           0           0           0
           1           0           0           0           1           6
           7           8           5           0           0           0
           5           0           0           0           5           9
          10           0           8           0           0           0
           8           0           0           0
RBond                                      R   N=          40
  1.00000000E+00  1.00000000E+00  1.00000000E+00  1.00000000E+00  1.00000000E+00
  0.00000000E+00  0.00000000E+00  0.00000000E+00  1.00000000E+00  0.00000000E+00
  0.00000000E+00  0.00000000E+00  1.00000000E+00  0.00000000E+00  0.00000000E+00
  0.00000000E+00  1.00000000E+00  1.00000000E+00  1.00000000E+00  1.00000000E+00
  1.00000000E+00  0.00000000E+00  0.00000000E+00  0.00000000E+00  1.00000000E+00
  0.00000000E+00  0.00000000E+00  0.00000000E+00  1.00000000E+00  1.00000000E+00
  1.00000000E+00  0.00000000E+00  1.00000000E+00  0.00000000E+00  0.00000000E+00
  0.00000000E+00  1.00000000E+00  0.00000000E+00  0.00000000E+00  0.00000000E+00
Shell types                                I   N=          29
           0          -1          -1          -1           2           0
           0           0           0           0           0           0
          -1          -1          -1           2           0           0
           0           0           0          -1          -1          -1
           2           0           0           0           0
Number of primitives per shell             I   N=          29
           6           3           1           1           1           3
           1           3           1           3           1           6
           3           1           1           1           3           1
           3           1           6           3           1           1
           1           3           1           3           1
Shell to atom map                          I   N=          29
           1           1           1           1           1           2
           2           3           3           4           4           5
           5           5           5           5           6           6
           7           7           8           8           8           8
           8           9           9          10          10
Primitive exponents                        R   N=          64
  3.04752488E+03  4.57369518E+02  1.03948685E+02  2.92101553E+01  9.28666296E+00
  3.16392696E+00  7.86827235E+00  1.88128854E+00  5.44249258E-01  1.68714478E-01
  4.38000000E-02  8.00000000E-01  1.87311370E+01  2.82539436E+00  6.40121692E-01
  1.61277759E-01  1.87311370E+01  2.82539436E+00  6.40121692E-01  1.61277759E-01
  1.87311370E+01  2.82539436E+00  6.40121692E-01  1.61277759E-01  3.04752488E+03
  4.57369518E+02  1.03948685E+02  2.92101553E+01  9.28666296E+00  3.16392696E+00
  7.86827235E+00  1.88128854E+00  5.44249258E-01  1.68714478E-01  4.38000000E-02
  8.00000000E-01  1.87311370E+01  2.82539436E+00  6.40121692E-01  1.61277759E-01
  1.87311370E+01  2.82539436E+00  6.40121692E-01  1.61277759E-01  3.04752488E+03
  4.57369518E+02  1.03948685E+02  2.92101553E+01  9.28666296E+00  3.16392696E+00
  7.86827235E+00  1.88128854E+00  5.44249258E-01  1.68714478E-01  4.38000000E-02
  8.00000000E-01  1.87311370E+01  2.82539436E+00  6.40121692E-01  1.61277759E-01
  1.87311370E+01  2.82539436E+00  6.40121692E-01  1.61277759E-01
Contraction coefficients                   R   N=          64
  1.83473713E-03  1.40373228E-02  6.88426223E-02  2.32184443E-01  4.67941348E-01
  3.62311985E-01 -1.19332420E-01 -1.60854152E-01  1.14345644E+00  1.00000000E+00
  1.00000000E+00  1.00000000E+00  3.34946043E-02  2.34726953E-01  8.13757326E-01
  1.00000000E+00  3.34946043E-02  2.34726953E-01  8.13757326E-01  1.00000000E+00
  3.34946043E-02  2.34726953E-01  8.13757326E-01  1.00000000E+00  1.83473713E-03
  1.40373228E-02  6.88426223E-02  2.32184443E-01  4.67941348E-01  3.62311985E-01
 -1.19332420E-01 -1.60854152E-01  1.14345644E+00  1.00000000E+00  1.00000000E+00
  1.00000000E+00  3.34946043E-02  2.34726953E-01  8.13757326E-01  1.00000000E+00
  3.34946043E-02  2.34726953E-01  8.13757326E-01  1.00000000E+00  1.83473713E-03
  1.40373228E-02  6.88426223E-02  2.32184443E-01  4.67941348E-01  3.62311985E-01
 -1.19332420E-01 -1.60854152E-01  1.14345644E+00  1.00000000E+00  1.00000000E+00
  1.00000000E+00  3.34946043E-02  2.34726953E-01  8.13757326E-01  1.00000000E+00
  3.34946043E-02  2.34726953E-01  8.13757326E-01  1.00000000E+00
P(S=P) Contraction coefficients            R   N=          64
  0.00000000E+00  0.00000000E+00  0.00000000E+00  0.00000000E+00  0.00000000E+00
  0.00000000E+00  6.89990666E-02  3.16423961E-01  7.44308291E-01  1.00000000E+00
  1.00000000E+00  0.00000000E+00  0.00000000E+00  0.00000000E+00  0.00000000E+00
  0.00000000E+00  0.00000000E+00  0.00000000E+00  0.00000000E+00  0.00000000E+00
  0.00000000E+00  0.00000000E+00  0.00000000E+00  0.00000000E+00  0.00000000E+00
  0.00000000E+00  0.00000000E+00  0.00000000E+00  0.00000000E+00  0.00000000E+00
  6.89990666E-02  3.16423961E-01  7.44308291E-01  1.00000000E+00  1.00000000E+00
  0.00000000E+00  0.00000000E+00  0.00000000E+00  0.00000000E+00  0.00000000E+00
  0.00000000E+00  0.00000000E+00  0.00000000E+00  0.00000000E+00  0.00000000E+00
  0.00000000E+00  0.00000000E+00  0.00000000E+00  0.00000000E+00  0.00000000E+00
  6.89990666E-02  3.16423961E-01  7.44308291E-01  1.00000000E+00  1.00000000E+00
  0.00000000E+00  0.00000000E+00  0.00000000E+00  0.00000000E+00  0.00000000E+00
  0.00000000E+00  0.00000000E+00  0.00000000E+00  0.00000000E+00
Coordinates of each shell                  R   N=          87
 -2.32299509E+00 -4.62202827E-01 -7.52324983E-02 -2.32299509E+00 -4.62202827E-01
 -7.52324983E-02 -2.32299509E+00 -4.62202827E-01 -7.52324983E-02 -2.32299509E+00
 -4.62202827E-01 -7.52324983E-02 -2.32299509E+00 -4.62202827E-01 -7.52324983E-02
 -2.43104135E+00 -1.88645074E+00  1.42810358E+00 -2.43104135E+00 -1.88645074E+00
  1.42810358E+00 -2.46261924E+00 -1.44964135E+00 -1.89146790E+00 -2.46261924E+00
 -1.44964135E+00 -1.89146790E+00 -3.97217575E+00  7.78558665E-01  1.09544493E-01
 -3.97217575E+00  7.78558665E-01  1.09544493E-01  1.51451363E-01  1.04713442E+00
  1.01377840E-01  1.51451363E-01  1.04713442E+00  1.01377840E-01  1.51451363E-01
  1.04713442E+00  1.01377840E-01  1.51451363E-01  1.04713442E+00  1.01377840E-01
  1.51451363E-01  1.04713442E+00  1.01377840E-01  1.49775756E-01  2.11673135E+00
  1.89960027E+00  1.49775756E-01  2.11673135E+00  1.89960027E+00  1.99861584E-01
  2.50021528E+00 -1.38436570E+00  1.99861584E-01  2.50021528E+00 -1.38436570E+00
  2.46884857E+00 -5.54144469E-01 -5.66800199E-02  2.46884857E+00 -5.54144469E-01
 -5.66800199E-02  2.46884857E+00 -5.54144469E-01 -5.66800199E-02  2.46884857E+00
 -5.54144469E-01 -5.66800199E-02  2.46884857E+00 -5.54144469E-01 -5.66800199E-02
  2.45599361E+00 -2.48933307E+00  6.33487827E-01  2.45599361E+00 -2.48933307E+00
  6.33487827E-01  4.27637633E+00  2.45197123E-01 -6.11694506E-01  4.27637633E+00
  2.45197123E-01 -6.11694506E-01
Alpha Orbital Energies                     R   N=          71
 -1.01951470E+01 -1.01933583E+01 -1.01804105E+01 -7.86355266E-01 -6.78681758E-01
 -5.86781440E-01 -4.58903814E-01 -4.44226203E-01 -4.11547956E-01 -3.63647854E-01
 -3.56724189E-01 -3.47153379E-01 -2.04599332E-01  1.61848730E-02  3.07273268E-02
  3.44869781E-02  4.87019578E-02  6.96489253E-02  7.70411710E-02  8.66626045E-02
  9.10922256E-02  9.64732823E-02  1.14790691E-01  1.23245574E-01  1.58219046E-01
  1.95766029E-01  2.02012617E-01  2.19621165E-01  2.32650585E-01  2.51269606E-01
  2.82442474E-01  3.05014151E-01  3.19100630E-01  3.40404031E-01  6.07933647E-01
  6.30044716E-01  6.44233766E-01  6.67548852E-01  6.86339567E-01  6.92307799E-01
  7.20327765E-01  7.36552036E-01  8.86927213E-01  9.09771415E-01  9.28052991E-01
  9.77413206E-01  9.88037117E-01  1.00757913E+00  1.04693669E+00  1.09802985E+00
  1.11174739E+00  1.22945686E+00  1.42667441E+00  1.50753002E+00  1.59868044E+00
  1.67737186E+00  1.84755321E+00  1.91695438E+00  1.96079190E+00  1.99390945E+00
  2.08096000E+00  2.14874158E+00  2.25936831E+00  2.34328708E+00  2.37014746E+00
  2.44466327E+00  2.63289968E+00  2.69900338E+00  4.13042461E+00  4.24332469E+00
  4.46581937E+00
Beta Orbital Energies                      R   N=          71
 -1.01941895E+01 -1.01816514E+01 -1.01800996E+01 -7.77318051E-01 -6.61805133E-01
 -5.72402985E-01 -4.53263656E-01 -4.37376786E-01 -4.06229443E-01 -3.57306866E-01
 -3.51110580E-01 -3.43925496E-01 -5.72860573E-02  1.73544239E-02  3.20269398E-02
  3.52335681E-02  5.08784767E-02  7.03826434E-02  7.69468066E-02  8.85148506E-02
  9.17055723E-02  1.09310450E-01  1.16684386E-01  1.24188055E-01  1.61640960E-01
  1.97698549E-01  2.07066542E-01  2.29310240E-01  2.35582400E-01  2.58336727E-01
  2.91112488E-01  3.08617694E-01  3.20959361E-01  3.43134429E-01  6.12569380E-01
  6.32730949E-01  6.56696742E-01  6.72624161E-01  6.95013447E-01  7.24767439E-01
  7.25433644E-01  7.53413951E-01  8.93052835E-01  9.21018455E-01  9.31600950E-01
  9.80416678E-01  9.90440552E-01  1.02389958E+00  1.05129856E+00  1.10287939E+00
  1.11317117E+00  1.24098209E+00  1.44255846E+00  1.51676326E+00  1.59991234E+00
  1.73070003E+00  1.86125722E+00  1.93138589E+00  1.96912576E+00  2.02271453E+00
  2.10201358E+00  2.17614813E+00  2.26275970E+00  2.35071719E+00  2.38032846E+00
  2.45165893E+00  2.64139285E+00  2.70391750E+00  4.15100500E+00  4.25362169E+00
  4.46980146E+00
Alpha MO coefficients                      R   N=        5041
  2.98602365E-04 -1.85354661E-04 -7.72287844E-05  2.93060783E-05  7.53414871E-06
  6.77771569E-04  4.32908608E-04 -1.28723193E-04 -1.03543743E-05 -1.32216339E-02
 -3.39527092E-03 -1.59260464E-03 -3.43476052E-04 -2.11462387E-05 -5.77539789E-05
 -8.00979284E-05 -1.82409062E-05 -2.37564299E-06  7.41932456E-06 -8.82186229E-05
  5.99733256E-05 -1.05973686E-04  7.72150859E-05 -5.56590522E-05  5.31862213E-04
  7.56144135E-02  3.61342727E-03 -1.47145171E-04  7.22574506E-05  2.21451126E-05
  2.18058489E-03  1.57530819E-03 -4.39868813E-04 -1.07282928E-04  6.37977571E-03
 -4.76202523E-03 -1.85968784E-03 -7.47626375E-05 -9.76173802E-04 -8.85890576E-04
 -7.30965503E-04  1.28970323E-04  1.79060506E-05 -1.25602380E-05 -1.00850217E-04
 -2.48011383E-04 -7.49140712E-05 -4.12064685E-04  9.89694649E-01  5.06938229E-02
 -7.40697800E-05  6.23933502E-05  4.22168456E-05 -1.31968055E-02  8.67457035E-04
 -7.71335721E-04 -1.35892216E-04  7.79183536E-03 -2.31401740E-03  1.72437574E-03
  1.15754091E-04 -9.92131449E-03 -9.89084557E-03 -9.58244831E-03  1.01954195E-04
  8.12984633E-05  9.36660433E-05 -1.54106090E-04  1.52404770E-03 -1.86016589E-04
  1.76703857E-03  7.78545524E-03  9.78252291E-05 -4.15464813E-05 -8.73655236E-05
 -1.04725086E-05  5.14900228E-03  2.18302141E-03  1.35966362E-03  1.84680904E-04
  5.49294769E-04 -1.41382772E-04  2.40298372E-04  5.93530981E-05 -3.67086809E-04
 -3.02475419E-04 -1.65433492E-04 -1.46183682E-04 -1.43823565E-05 -1.84734763E-05
 -1.90257562E-04  9.29914689E-05 -1.87032430E-04  1.08955115E-04 -1.64255543E-04
 -1.45401662E-04  9.90175427E-01  5.00129786E-02  4.11045070E-05 -8.45114640E-05
  1.54691732E-05 -2.14263380E-02 -6.58748505E-05  1.37808869E-03  3.08454897E-05
 -5.81214182E-04  3.54724206E-04 -6.52649455E-04 -1.46327912E-04 -8.87544471E-03
 -8.81979710E-03 -8.71022891E-03 -3.74076893E-05 -1.02189460E-05 -2.70011060E-05
 -1.31012829E-05  3.69430806E-03 -4.58915392E-05  3.63594334E-03 -7.58135911E-02
 -4.14964725E-03  1.06476255E-04 -9.18970656E-05 -1.98790563E-05  6.41527644E-03
 -2.36238954E-03  1.29917042E-03  2.42204831E-04 -6.51757673E-04  3.65621623E-04
 -1.13097833E-04  3.75163311E-05  4.76083523E-04  5.28565178E-04  5.91204354E-04
  1.57356041E-04 -1.17478284E-05 -5.73392381E-05 -1.42376203E-04 -3.13972884E-04
 -1.16108560E-04 -4.75799993E-05  9.92915841E-01  5.01089121E-02  6.40179884E-05
  2.57030794E-05  1.85913760E-05 -1.82982845E-02 -9.37598937E-04 -5.90189380E-04
 -7.89727267E-05 -2.88890262E-03 -3.36081755E-04 -5.95262492E-05 -4.63745465E-05
 -9.15609087E-03 -9.09995439E-03 -9.04601501E-03 -8.73134006E-05 -1.22280022E-05
 -5.93597762E-06 -1.12423152E-04  3.32247459E-03 -1.15300698E-04  3.31884317E-03
 -1.41058015E-04  3.38803880E-03 -8.02702034E-03 -6.23198049E-04  1.08353222E-04
  7.23149898E-05  1.38025565E-05  4.49151609E-03 -2.30271029E-03 -8.87006154E-04
 -1.47662447E-04  9.32769425E-03  1.27537444E-03 -1.71293740E-03 -1.39604454E-04
 -2.75435441E-04 -1.48502214E-04 -2.94496957E-05 -1.15591841E-04 -1.40302044E-05
 -1.61199700E-05 -1.40619909E-04 -2.59605190E-04 -1.38845532E-04 -3.19367722E-04
  2.27025236E-04 -1.90609117E-04  1.31501541E-04  1.05208514E-05  6.85440556E-06
  2.93465980E-04 -5.63343424E-04  9.02888387E-05  4.14518115E-05 -7.13658648E-03
  1.66946302E-03 -1.06535752E-03 -1.18342485E-04  1.60180577E-05  8.23583137E-06
 -1.37550103E-04  1.84928133E-06  1.20814118E-05  1.45408184E-05 -1.29181414E-04
  3.42016687E-04 -2.32265317E-05  4.92574285E-04 -1.10071251E-01  2.06725125E-01
  5.30547453E-02  2.60507069E-02  3.72776453E-03  1.81924998E-01  6.54088861E-03
 -7.14881335E-04  2.19764151E-04  4.82814806E-02  1.11836049E-02  5.27974255E-03
  1.26267110E-03  4.35708762E-03 -4.06408799E-04 -2.01206469E-03  3.72166474E-03
  4.76206628E-04  1.12761242E-04  6.07078039E-02 -5.17860201E-04  6.00645471E-02
 -1.48389299E-03  5.78460622E-02  8.81811477E-04 -1.52390861E-01  2.91431328E-01
  1.88472020E-03 -3.86136614E-02 -2.95076490E-03  2.36738248E-01 -1.66989358E-03
  4.92683400E-03  2.41285668E-03  2.47415964E-02  2.07473428E-02 -2.09428607E-03
 -6.20744650E-04  1.04602769E-03 -8.19891087E-04 -2.80596707E-03  1.83114947E-04
 -1.04047308E-04  4.09611076E-05  8.52618778E-02  1.59159457E-03  8.38542049E-02
  3.06926822E-03 -1.06840173E-01  2.08509873E-01 -6.05677411E-02  3.52970383E-02
  6.48854263E-03  1.69108395E-01 -6.17034444E-03  3.07475355E-03  1.43773758E-03
 -4.72617104E-02  1.24804456E-02 -7.99175451E-03 -4.14011050E-04  4.30952250E-03
  1.49207010E-04 -5.21186858E-03 -4.64368175E-03 -1.27001059E-03 -8.86849557E-04
  5.56634154E-02  4.58721545E-03  5.20220950E-02  3.37352004E-03 -1.46080999E-01
  2.82420809E-01 -3.57882057E-02 -3.93538935E-03 -2.86183056E-04  2.85309068E-01
 -1.75751371E-02 -4.07097404E-03 -2.50469753E-04  5.52805737E-02  1.01108850E-02
  6.67795125E-03 -2.32053767E-04 -4.99229081E-03  7.03059443E-04  1.71546685E-03
 -3.88215172E-03 -5.38998342E-04 -1.53143730E-04  1.02489561E-01  1.62483228E-02
  1.02373129E-01  1.57963007E-02  1.11769951E-01  1.96808674E-02  1.67906619E-02
 -3.51176064E-02 -1.57617385E-01  1.30429647E-03 -8.04009937E-04 -2.41256583E-02
 -3.33654439E-02 -2.66228632E-03 -8.10542659E-04 -1.11095534E-02  1.05898785E-02
 -2.00101894E-03  9.32415113E-04  1.92021500E-03 -1.57702330E-04 -1.24870025E-04
  1.33630025E-02  1.42276116E-03  2.69731487E-04 -1.14566660E-02 -3.21528190E-03
 -1.24463465E-02 -4.93393117E-03  1.40800276E-01 -2.80470573E-01 -1.79298379E-02
 -1.31470165E-02 -5.73478896E-03 -2.72928971E-01 -8.65908400E-03 -1.72396135E-03
 -2.24421621E-03 -3.65145198E-02  4.60306410E-03 -2.00551588E-03 -6.71728423E-04
  2.10385237E-03 -1.02408979E-03  5.10557820E-03 -1.70532852E-03  2.02984104E-03
  2.84966843E-03 -9.46429477E-02 -1.89830736E-02 -1.06858483E-01 -2.19687366E-02
  7.32929677E-02 -1.43126478E-01  8.95432243E-02  9.77952307E-02  9.19208035E-03
 -1.76439631E-01  2.35407179E-02  3.25390615E-02  3.16298253E-03 -1.19108814E-01
 -2.43124760E-02 -1.26682003E-02 -1.61812636E-03  6.81120379E-03  1.72040861E-03
 -5.32177239E-03  9.66221853E-03  1.00959805E-03  1.17954991E-03 -8.88777797E-02
 -2.99720174E-02 -8.59878126E-02 -2.66479648E-02 -6.31041926E-02 -2.09815868E-02
 -1.20787864E-01  2.40296604E-01 -1.21583481E-02  1.43136193E-01  1.36602130E-02
  2.81825610E-01 -3.65950791E-03  5.19811356E-02  5.15263934E-03  1.81748158E-01
 -1.30049996E-02 -2.24269589E-02 -2.18512501E-03 -1.52834586E-02 -2.52586064E-03
  8.44289859E-03  1.52708594E-03 -3.78247261E-04 -1.29327503E-03  1.36788347E-01
  4.42963035E-02  1.37161050E-01  4.16960012E-02  9.91777212E-02 -1.99742682E-01
 -1.06071883E-01  1.13868086E-01 -1.63676983E-03 -2.34620838E-01 -2.69753900E-02
  3.28137507E-02 -1.99017546E-03 -7.26008168E-02  1.00108010E-02 -6.00867006E-03
 -1.45552640E-03  4.53909493E-03 -2.18100338E-04  2.44552018E-03 -1.14752762E-02
  1.17452242E-03  5.40878223E-03 -1.29105497E-01 -4.76394307E-02 -1.02661788E-01
 -3.72379078E-02  9.60565563E-03 -1.82158264E-02  1.21168761E-01 -5.87390750E-02
  1.90871296E-01 -3.18507690E-02  5.22210725E-02 -3.13275272E-02  8.39505511E-02
 -2.90529852E-02  1.95345641E-03 -5.27557388E-03  7.91611882E-03  1.29652733E-03
 -1.02809167E-03 -1.15801216E-03  3.92794376E-03  4.96436343E-03 -6.89978353E-03
  9.29621083E-02  5.83719267E-02 -9.39932826E-02 -5.71118610E-02 -7.52935482E-02
 -4.30941435E-02 -1.32492418E-02  2.95755649E-02 -2.16500960E-02 -1.47228250E-01
  2.51147487E-01  2.84729036E-02 -1.00693779E-02 -5.93383408E-02  1.10320529E-01
  4.14252467E-02 -2.25829125E-03 -1.51788434E-02  1.21757546E-02 -3.69995795E-03
  1.46931047E-03 -1.50627831E-03 -8.53245855E-04 -2.52703403E-04  1.00102680E-02
  9.81932641E-02  5.93358575E-02 -1.53476142E-01 -9.86571762E-02  7.29633909E-03
 -1.39675263E-02 -1.77799364E-01 -1.45433342E-01  1.52651577E-01 -2.48319675E-02
 -7.07944112E-02 -6.25596363E-02  6.58843246E-02 -2.44660339E-02 -4.93620630E-03
 -9.50501548E-03  5.81955277E-03 -6.13938157E-03  4.81126446E-03  1.09406302E-03
 -5.77484960E-03 -1.70360154E-03  1.66921968E-03  9.85473965E-02  6.02815098E-02
 -1.48541828E-01 -8.91411480E-02 -5.66812270E-03  1.06502567E-02 -1.94536577E-01
  1.10468317E-01  1.89285373E-01  1.46400572E-02 -8.63913007E-02  5.47946080E-02
  8.85818139E-02  1.70456348E-02 -7.78396703E-03  6.66773636E-03  1.14486154E-02
  7.28515762E-04  6.17111223E-03 -5.68810625E-03 -8.44763351E-03  1.40993404E-03
 -4.43571478E-03  4.78510509E-02  3.06802338E-02 -1.16413445E-01 -6.92335868E-02
  1.47416580E-01  9.30994042E-02  1.86949616E-02 -4.38379699E-02 -3.52707690E-02
  1.95012393E-01  2.16967360E-01 -3.72010373E-02 -1.74992714E-02  7.86922758E-02
  9.46007399E-02 -3.93935165E-02 -9.34132141E-03  1.96090072E-02  1.26381130E-02
  2.23281862E-03 -5.23862306E-03  9.13595829E-03  7.88775419E-04 -2.84373293E-03
  6.19293555E-03  1.58009242E-01  1.08835360E-01 -3.11310380E-02 -1.80935405E-02
 -5.88320604E-03  8.57417064E-03  2.42861804E-01  4.21090642E-02  3.55312752E-02
  2.93006184E-02  9.43661621E-02  2.84967604E-02  2.01804764E-02  4.31638932E-02
  6.79290077E-03  6.01420962E-03 -2.31719161E-04  5.69678317E-04  7.28066368E-04
  1.14486354E-03  7.13791428E-03 -7.27287164E-03  1.89262756E-03 -1.14110645E-02
 -5.85072967E-03  1.32112567E-01  8.33182164E-02 -5.41051081E-03  7.58018959E-03
 -1.93550385E-02 -2.76637970E-01  9.29318511E-02  3.06615343E-02 -6.00645496E-03
 -1.22528230E-01  4.54607689E-02  4.77278002E-02  4.18113637E-03 -1.29025448E-02
  8.13453171E-03 -8.37475457E-03  1.11937153E-04  1.07349134E-02  1.63846910E-03
  7.58905425E-04 -7.77789894E-03  1.65458900E-01  1.11815650E-01  3.63631984E-02
  2.28958677E-02 -8.60585264E-02 -6.70637374E-02  1.44275884E-03 -2.41225504E-03
  2.35975961E-01 -5.76010633E-02  5.88527570E-02 -5.68503913E-03  1.06274627E-01
 -2.98038551E-02  2.84682900E-02 -2.27287693E-02  3.16231473E-02 -5.18449768E-03
  5.29432358E-03  2.50349495E-03 -2.19473998E-03 -1.28609906E-03 -1.00728509E-03
 -4.20047178E-03  3.19935323E-03  1.17275777E-02  9.73249425E-03 -5.18359154E-02
 -3.50841303E-02  1.05507756E-03  2.49802327E-03 -3.43992340E-02  3.35963609E-01
 -5.99206410E-02 -2.55936951E-02 -2.16193604E-03  1.38798301E-01 -2.59736872E-02
 -2.85184928E-02 -1.67490030E-03  2.23835351E-02 -6.68042501E-03  9.66502993E-03
 -1.25217165E-02 -1.31092385E-03 -6.10725903E-04 -3.88339492E-03  8.33251666E-03
 -2.03838699E-01 -1.42253875E-01  7.10276710E-02  5.00152051E-02 -1.25344374E-02
  3.07459532E-02  2.28595563E-01  7.91527985E-02  2.86213801E-01  3.14940110E-02
  1.07344148E-01  3.83441513E-02  1.43350738E-01 -4.02620168E-02  1.68619581E-02
 -1.52188918E-03  3.70622310E-02  2.66893399E-03  1.89328367E-03 -9.47077127E-03