dene                                                                    
Freq      UB3LYP                                                      6-31+G(d)           
Number of atoms                            I                4
Charge                                     I                0
Multiplicity                               I                2
Number of electrons                        I                9
Number of alpha electrons                  I                5
Number of beta electrons                   I                4
Number of basis functions                  I               25
Number of independant functions            I               25
Number of point charges in /Mol/           I                0
Number of translation vectors              I                0
Info1-9                                    I   N=           9
          14          14        1002           0           0         100
           6          18        -502
Num ILSW                                   I              100
ILSW                                       I   N=         100
           1           1           0           0           2           0
           0           0           0           0         402      200000
           0           0          -1           0           0           0
           0      800000           1           0           1           0
           1           0           0           0     1000000           0
           0           0      100000           0          -1           0
           0           0           0           0           0           0
           0           0           0           1           0           0
           0           0           1      720000      810000           0
           0           0           0           0           0           0
           0           0           0           0           0           0
           0           0           0           0           0           0
           0           0           0           0           0           0
           0           0           0           0           0           0
           0           0           0           0           0           0
           0           0           0           0           0           0
           0           0           0           0
Number of contracted shells                I               11
Highest angular momentum                   I                2
Largest degree of contraction              I                6
Number of primitive shells                 I               24
Pure/Cartesian d shells                    I                1
Pure/Cartesian f shells                    I                0
Virial Ratio                               R      2.010972805910452E+00
SCF Energy                                 R     -3.984264494447349E+01
Total Energy                               R     -3.984264494447349E+01
S**2                                       R      7.535018864889596E-01
S**2 after annihilation                    R      7.500063800582555E-01
RMS Force                                  R      3.299666283989635E-05
RMS Density                                R      6.603946098753001E-10
Atomic numbers                             I   N=           4
           6           1           1           1
Nuclear charges                            R   N=           4
  6.00000000E+00  1.00000000E+00  1.00000000E+00  1.00000000E+00
Current cartesian coordinates              R   N=          12
  3.79470760E-19  4.34453450E-04 -2.31147705E-31  1.96190416E+00  5.85634017E-01
 -1.67821946E-27 -9.80952079E-01 -2.94120369E-01  1.77282949E+00 -9.80952079E-01
 -2.94120369E-01 -1.77282949E+00
Int Atom Types                             I   N=           4
           0           0           0           0
Force Field                                I                0
MM charges                                 R   N=           4
  0.00000000E+00  0.00000000E+00  0.00000000E+00  0.00000000E+00
Integer atomic weights                     I   N=           4
          12           1           1           1
Real atomic weights                        R   N=           4
  1.20000000E+01  1.00782504E+00  1.00782504E+00  1.00782504E+00
Atom residue info                          I   N=           4
           0           0           0           0
Atom fragment info                         I   N=           4
           0           0           0           0
Atom residue num                           I   N=           4
           0           0           0           0
Nuclear spins                              I   N=           4
           0           1           1           1
Nuclear ZEff                               R   N=           4
 -3.60000000E+00 -1.00000000E+00 -1.00000000E+00 -1.00000000E+00
Nuclear QMom                               R   N=           4
  0.00000000E+00  0.00000000E+00  0.00000000E+00  0.00000000E+00
Nuclear GFac                               R   N=           4
  0.00000000E+00  2.79284600E+00  2.79284600E+00  2.79284600E+00
MicOpt                                     I   N=           4
          -1          -1          -1          -1
Constraint Structure                       R   N=          12
  3.79470760E-19  4.34453450E-04 -2.31147705E-31  1.96190416E+00  5.85634017E-01
 -1.67821946E-27 -9.80952079E-01 -2.94120369E-01  1.77282949E+00 -9.80952079E-01
 -2.94120369E-01 -1.77282949E+00
ONIOM Charges                              I   N=          16
           0           0           0           0           0           0
           0           0           0           0           0           0
           0           0           0           0
ONIOM Multiplicities                       I   N=          16
           2           0           0           0           0           0
           0           0           0           0           0           0
           0           0           0           0
Atom Layers                                I   N=           4
           0           0           0           0
Atom Modifiers                             I   N=           4
           0           0           0           0
Int Atom Modified Types                    I   N=           4
           0           0           0           0
Link Atoms                                 I   N=           4
           0           0           0           0
Atom Modified MM Charges                   R   N=           4
  0.00000000E+00  0.00000000E+00  0.00000000E+00  0.00000000E+00
Link Distances                             R   N=          16
  0.00000000E+00  0.00000000E+00  0.00000000E+00  0.00000000E+00  0.00000000E+00
  0.00000000E+00  0.00000000E+00  0.00000000E+00  0.00000000E+00  0.00000000E+00
  0.00000000E+00  0.00000000E+00  0.00000000E+00  0.00000000E+00  0.00000000E+00
  0.00000000E+00
MxBond                                     I                3
NBond                                      I   N=           4
           3           1           1           1
IBond                                      I   N=          12
           2           3           4           1           0           0
           1           0           0           1           0           0
RBond                                      R   N=          12
  1.00000000E+00  1.00000000E+00  1.00000000E+00  1.00000000E+00  0.00000000E+00
  0.00000000E+00  1.00000000E+00  0.00000000E+00  0.00000000E+00  1.00000000E+00
  0.00000000E+00  0.00000000E+00
Cartesian Gradient                         R   N=          12
  7.73719230E-05  5.75290818E-05 -8.81378439E-16 -1.42050698E-05 -1.86994636E-05
 -7.63278329E-17 -3.15834266E-05 -1.94148091E-05 -1.53133624E-05 -3.15834266E-05
 -1.94148091E-05  1.53133624E-05
Cartesian Force Constants                  R   N=          78
  5.74849633E-01  1.64633280E-01  7.34173048E-02 -3.24163393E-12  5.60112966E-12
  6.23670909E-01 -3.31185147E-01 -9.64324285E-02 -2.48418741E-10  3.43825227E-01
 -9.63788269E-02 -3.68106239E-02 -6.85301384E-11  1.01793724E-01  3.30710187E-02
  2.40151764E-12  3.29171354E-13 -5.60056173E-02  3.48331942E-11  8.47886285E-12
  4.64234786E-02 -1.21832243E-01 -3.41004259E-02  1.26044218E-01 -6.32004016E-03
 -2.70744882E-03  2.30442822E-02  1.18068858E-01 -3.41272268E-02 -1.83033404E-02
  3.78985023E-02 -2.68064796E-03  1.86980263E-03  6.87454023E-03  3.45874867E-02
  1.30724976E-02  1.26053315E-01  3.78383016E-02 -2.83832646E-01 -3.26943824E-03
 -9.73975813E-04  4.79106942E-03 -1.35936189E-01 -4.08186842E-02  2.92157040E-01
 -1.21832243E-01 -3.41004259E-02 -1.26044218E-01 -6.32004003E-03 -2.70744878E-03
 -2.30442822E-02  1.00834257E-02  2.22038805E-03  1.31523120E-02  1.18068858E-01
 -3.41272268E-02 -1.83033404E-02 -3.78985023E-02 -2.68064801E-03  1.86980261E-03
 -6.87454023E-03  2.22038805E-03  3.36104017E-03  3.95435836E-03  3.45874867E-02
  1.30724976E-02 -1.26053315E-01 -3.78383016E-02 -2.83832646E-01  3.26943846E-03
  9.73975872E-04  4.79106942E-03 -1.31523120E-02 -3.95435836E-03 -1.31154635E-02
  1.35936189E-01  4.08186842E-02  2.92157040E-01
Dipole Moment                              R   N=           3
  1.49419941E-04 -6.62568328E-04 -2.72446453E-16
Dipole Derivatives                         R   N=          36
 -3.05664088E-02  1.47464300E-01  1.07205786E-10  1.47493365E-01 -4.79789661E-01
 -5.44172071E-11 -5.63214095E-11 -9.43829657E-11  1.37484412E-02 -4.13149751E-02
 -6.44847891E-02  1.59604091E-10 -6.43462642E-02  1.55496375E-01 -6.38918752E-11
  6.17549321E-11 -3.65419238E-11  5.16464955E-02  3.59406918E-02 -4.14897554E-02
  4.66136559E-02 -4.15735499E-02  1.62146642E-01  1.41888961E-02  4.65791954E-02
  1.40027563E-02 -3.26974682E-02  3.59406918E-02 -4.14897554E-02 -4.66136558E-02
 -4.15735499E-02  1.62146642E-01 -1.41888961E-02 -4.65791954E-02 -1.40027562E-02
 -3.26974682E-02
Polarizability                             R   N=           6
  1.24124678E+01  3.14806471E-01  1.14533180E+01  1.72191705E-10 -3.32151501E-10
  1.25057526E+01
Anisotropic Hyperfine tensors              R   N=          24
 -4.01703096E-01 -4.38654959E-01  9.34510664E-01  1.43585231E-14  4.77119429E-15
 -5.32807568E-01  6.88773370E-02  2.20627102E-02  1.44351257E-03  1.95156391E-18
  1.21972744E-18 -7.03208496E-02 -3.14984984E-02 -7.84972743E-03 -7.47404341E-03
 -6.04800073E-02 -1.81364473E-02  3.89725418E-02 -3.14984984E-02 -7.84972743E-03
 -7.47404341E-03  6.04800073E-02  1.81364473E-02  3.89725418E-02
Isotropic Hyperfine splittings             R   N=           4
  1.04310157E-01 -1.52560296E-02 -1.52543123E-02 -1.52543123E-02
QEq coupling tensors                       R   N=          24
  7.94492908E-02  8.67651931E-02 -1.84837869E-01 -6.04238881E-14 -2.00187089E-14
  1.05388578E-01 -2.72931874E-01 -1.30104508E-01  1.24374297E-01  5.55111512E-17
  4.68375339E-17  1.48557577E-01  4.40936806E-02 -3.57239603E-02  1.52418297E-01
  1.90885304E-01  5.73099837E-02 -1.96511977E-01  4.40936806E-02 -3.57239603E-02
  1.52418297E-01 -1.90885304E-01 -5.73099837E-02 -1.96511977E-01
Mulliken Charges                           R   N=           4
 -5.94558117E-01  1.98212603E-01  1.98172757E-01  1.98172757E-01
Optimization MaxStp                        I                2
Optimization Job offset                    I                0
Optimization Num results per geometry      I                2
Optimization Num geometry variables        I               12
Opt point       1 Results for each geome   R   N=           2
 -3.98426449E+01  0.00000000E+00
Opt point       1 Geometries               R   N=          12
  3.79470760E-19  4.34453450E-04 -2.31147705E-31  1.96190416E+00  5.85634017E-01
 -1.67821946E-27 -9.80952079E-01 -2.94120369E-01  1.77282949E+00 -9.80952079E-01
 -2.94120369E-01 -1.77282949E+00
Opt point       1 Gradient at each geome   R   N=          12
  7.73719230E-05  5.75290818E-05 -8.81378439E-16 -1.42050698E-05 -1.86994636E-05
 -7.63278329E-17 -3.15834266E-05 -1.94148091E-05 -1.53133624E-05 -3.15834266E-05
 -1.94148091E-05  1.53133624E-05
Optimization Number of geometries          I   N=           1
           1
