dene                                                                    
Freq      UB3LYP                                                      6-31+G(d)           
Number of atoms                            I                4
Charge                                     I                0
Multiplicity                               I                2
Number of electrons                        I                9
Number of alpha electrons                  I                5
Number of beta electrons                   I                4
Number of basis functions                  I               25
Number of independant functions            I               25
Number of point charges in /Mol/           I                0
Number of translation vectors              I                0
Info1-9                                    I   N=           9
          14          14        1002           0           0         100
           6          18        -502
Num ILSW                                   I              100
ILSW                                       I   N=         100
           1           1           0           0           2           0
           0           0           0           0         402      200000
           0           0          -1           0           0           0
           0      800000           1           0           1           0
           1           0           0           0     1000000           0
           0           0      100000           0          -1           0
           0           0           0           0           0           0
           0           0           0           1           0           0
           0           0           1      720000      810000           0
           0           0           0           0           0           0
           0           0           0           0           0           0
           0           0           0           0           0           0
           0           0           0           0           0           0
           0           0           0           0           0           0
           0           0           0           0           0           0
           0           0           0           0           0           0
           0           0           0           0
Number of contracted shells                I               11
Highest angular momentum                   I                2
Largest degree of contraction              I                6
Number of primitive shells                 I               24
Pure/Cartesian d shells                    I                1
Pure/Cartesian f shells                    I                0
Virial Ratio                               R      2.010972805910452E+00
SCF Energy                                 R     -3.984264494447349E+01
Total Energy                               R     -3.984264494447349E+01
S**2                                       R      7.535018864889596E-01
S**2 after annihilation                    R      7.500063800582555E-01
RMS Force                                  R      3.299666283989635E-05
RMS Density                                R      6.603946098753001E-10
Atomic numbers                             I   N=           4
           6           1           1           1
Nuclear charges                            R   N=           4
  6.00000000E+00  1.00000000E+00  1.00000000E+00  1.00000000E+00
Current cartesian coordinates              R   N=          12
  3.79470760E-19  4.34453450E-04 -2.31147705E-31  1.96190416E+00  5.85634017E-01
 -1.67821946E-27 -9.80952079E-01 -2.94120369E-01  1.77282949E+00 -9.80952079E-01
 -2.94120369E-01 -1.77282949E+00
Int Atom Types                             I   N=           4
           0           0           0           0
Force Field                                I                0
MM charges                                 R   N=           4
  0.00000000E+00  0.00000000E+00  0.00000000E+00  0.00000000E+00
Integer atomic weights                     I   N=           4
          12           1           1           1
Real atomic weights                        R   N=           4
  1.20000000E+01  1.00782504E+00  1.00782504E+00  1.00782504E+00
Atom residue info                          I   N=           4
           0           0           0           0
Atom fragment info                         I   N=           4
           0           0           0           0
Atom residue num                           I   N=           4
           0           0           0           0
Nuclear spins                              I   N=           4
           0           1           1           1
Nuclear ZEff                               R   N=           4
 -3.60000000E+00 -1.00000000E+00 -1.00000000E+00 -1.00000000E+00
Nuclear QMom                               R   N=           4
  0.00000000E+00  0.00000000E+00  0.00000000E+00  0.00000000E+00
Nuclear GFac                               R   N=           4
  0.00000000E+00  2.79284600E+00  2.79284600E+00  2.79284600E+00
MicOpt                                     I   N=           4
          -1          -1          -1          -1
Constraint Structure                       R   N=          12
  3.79470760E-19  4.34453450E-04 -2.31147705E-31  1.96190416E+00  5.85634017E-01
 -1.67821946E-27 -9.80952079E-01 -2.94120369E-01  1.77282949E+00 -9.80952079E-01
 -2.94120369E-01 -1.77282949E+00
ONIOM Charges                              I   N=          16
           0           0           0           0           0           0
           0           0           0           0           0           0
           0           0           0           0
ONIOM Multiplicities                       I   N=          16
           2           0           0           0           0           0
           0           0           0           0           0           0
           0           0           0           0
Atom Layers                                I   N=           4
           0           0           0           0
Atom Modifiers                             I   N=           4
           0           0           0           0
Int Atom Modified Types                    I   N=           4
           0           0           0           0
Link Atoms                                 I   N=           4
           0           0           0           0
Atom Modified MM Charges                   R   N=           4
  0.00000000E+00  0.00000000E+00  0.00000000E+00  0.00000000E+00
Link Distances                             R   N=          16
  0.00000000E+00  0.00000000E+00  0.00000000E+00  0.00000000E+00  0.00000000E+00
  0.00000000E+00  0.00000000E+00  0.00000000E+00  0.00000000E+00  0.00000000E+00
  0.00000000E+00  0.00000000E+00  0.00000000E+00  0.00000000E+00  0.00000000E+00
  0.00000000E+00
MxBond                                     I                3
NBond                                      I   N=           4
           3           1           1           1
IBond                                      I   N=          12
           2           3           4           1           0           0
           1           0           0           1           0           0
RBond                                      R   N=          12
  1.00000000E+00  1.00000000E+00  1.00000000E+00  1.00000000E+00  0.00000000E+00
  0.00000000E+00  1.00000000E+00  0.00000000E+00  0.00000000E+00  1.00000000E+00
  0.00000000E+00  0.00000000E+00
Shell types                                I   N=          11
           0          -1          -1          -1           2           0
           0           0           0           0           0
Number of primitives per shell             I   N=          11
           6           3           1           1           1           3
           1           3           1           3           1
Shell to atom map                          I   N=          11
           1           1           1           1           1           2
           2           3           3           4           4
Primitive exponents                        R   N=          24
  3.04752488E+03  4.57369518E+02  1.03948685E+02  2.92101553E+01  9.28666296E+00
  3.16392696E+00  7.86827235E+00  1.88128854E+00  5.44249258E-01  1.68714478E-01
  4.38000000E-02  8.00000000E-01  1.87311370E+01  2.82539436E+00  6.40121692E-01
  1.61277759E-01  1.87311370E+01  2.82539436E+00  6.40121692E-01  1.61277759E-01
  1.87311370E+01  2.82539436E+00  6.40121692E-01  1.61277759E-01
Contraction coefficients                   R   N=          24
  1.83473713E-03  1.40373228E-02  6.88426223E-02  2.32184443E-01  4.67941348E-01
  3.62311985E-01 -1.19332420E-01 -1.60854152E-01  1.14345644E+00  1.00000000E+00
  1.00000000E+00  1.00000000E+00  3.34946043E-02  2.34726953E-01  8.13757326E-01
  1.00000000E+00  3.34946043E-02  2.34726953E-01  8.13757326E-01  1.00000000E+00
  3.34946043E-02  2.34726953E-01  8.13757326E-01  1.00000000E+00
P(S=P) Contraction coefficients            R   N=          24
  0.00000000E+00  0.00000000E+00  0.00000000E+00  0.00000000E+00  0.00000000E+00
  0.00000000E+00  6.89990666E-02  3.16423961E-01  7.44308291E-01  1.00000000E+00
  1.00000000E+00  0.00000000E+00  0.00000000E+00  0.00000000E+00  0.00000000E+00
  0.00000000E+00  0.00000000E+00  0.00000000E+00  0.00000000E+00  0.00000000E+00
  0.00000000E+00  0.00000000E+00  0.00000000E+00  0.00000000E+00
Coordinates of each shell                  R   N=          33
  3.79470760E-19  4.34453450E-04 -2.31147705E-31  3.79470760E-19  4.34453450E-04
 -2.31147705E-31  3.79470760E-19  4.34453450E-04 -2.31147705E-31  3.79470760E-19
  4.34453450E-04 -2.31147705E-31  3.79470760E-19  4.34453450E-04 -2.31147705E-31
  1.96190416E+00  5.85634017E-01 -1.67821946E-27  1.96190416E+00  5.85634017E-01
 -1.67821946E-27 -9.80952079E-01 -2.94120369E-01  1.77282949E+00 -9.80952079E-01
 -2.94120369E-01  1.77282949E+00 -9.80952079E-01 -2.94120369E-01 -1.77282949E+00
 -9.80952079E-01 -2.94120369E-01 -1.77282949E+00
Alpha Orbital Energies                     R   N=          25
 -1.02043952E+01 -6.90925020E-01 -4.26168247E-01 -4.26067681E-01 -2.34979674E-01
  1.98619394E-02  5.85884427E-02  5.85957429E-02  7.40653450E-02  1.88806815E-01
  1.93108950E-01  1.93222837E-01  6.38214664E-01  6.38231404E-01  6.48616466E-01
  8.22160272E-01  9.56583602E-01  9.56809630E-01  9.78306093E-01  1.63970725E+00
  1.63974720E+00  2.00977318E+00  2.20577850E+00  2.20617037E+00  4.05682665E+00
Beta Orbital Energies                      R   N=          25
 -1.01906086E+01 -6.51569202E-01 -4.16849807E-01 -4.16747737E-01 -7.54028014E-02
  2.54191347E-02  5.84571551E-02  5.84646805E-02  9.93317613E-02  1.97553709E-01
  1.97664585E-01  2.08572825E-01  6.48128430E-01  6.48145925E-01  7.18056283E-01
  8.45197073E-01  9.59036982E-01  9.59264200E-01  1.00264142E+00  1.70841513E+00
  1.70845916E+00  2.09166766E+00  2.21638291E+00  2.21677290E+00  4.09346922E+00
Alpha MO coefficients                      R   N=         625
  9.92456519E-01  5.05514518E-02 -1.66752344E-10 -4.53687492E-07  0.00000000E+00
 -1.04453467E-02  4.70300623E-07  1.70865681E-06  0.00000000E+00  7.09779108E-04
  8.47965366E-08  4.80728507E-07  0.00000000E+00 -1.01665717E-02 -9.92208049E-03
 -1.01910584E-02 -9.26757322E-05  0.00000000E+00  0.00000000E+00 -2.41309348E-04
  1.73494957E-03 -2.41080578E-04  1.73574407E-03 -2.41080578E-04  1.73574407E-03
 -2.05224169E-01  4.07966711E-01  7.18552406E-06 -1.28277535E-04  0.00000000E+00
  4.03824671E-01 -1.02742394E-05 -6.34276635E-05  0.00000000E+00  2.02508220E-02
 -1.36258168E-06 -5.16479891E-06  0.00000000E+00  2.86614007E-03 -8.40389467E-03
  3.95077407E-03  4.27211543E-03  0.00000000E+00  0.00000000E+00  1.46213096E-01
  2.94786147E-02  1.46207377E-01  2.94584438E-02  1.46207377E-01  2.94584438E-02
 -1.87211864E-05  4.34189566E-05  4.44211327E-01  1.32794999E-01  0.00000000E+00
  3.84696729E-05  1.87642564E-01  5.60953123E-02  0.00000000E+00  7.21471462E-06
  2.66308676E-02  7.95921397E-03  0.00000000E+00  1.89993122E-02  1.68023304E-03
 -2.06848352E-02  6.52101955E-03  0.00000000E+00  0.00000000E+00  2.81420678E-01
  1.95506451E-01 -1.40722679E-01 -9.77643536E-02 -1.40722679E-01 -9.77643536E-02
  0.00000000E+00  0.00000000E+00  0.00000000E+00  0.00000000E+00  4.63634185E-01
  0.00000000E+00  0.00000000E+00  0.00000000E+00  1.95876005E-01  0.00000000E+00
  0.00000000E+00  0.00000000E+00  2.78119057E-02  0.00000000E+00  0.00000000E+00
  0.00000000E+00  0.00000000E+00 -2.28867712E-02 -6.88030816E-03  0.00000000E+00
  0.00000000E+00  2.43715435E-01  1.69387025E-01 -2.43715435E-01 -1.69387025E-01
 -1.18551578E-04  2.75342358E-04 -1.71237214E-01  5.72807800E-01  0.00000000E+00
  5.29672162E-04 -1.32361852E-01  4.42756755E-01  0.00000000E+00  6.16026368E-05
 -3.75183058E-02  1.25471226E-01  0.00000000E+00 -8.55051472E-06 -3.54153592E-06
 -1.05249321E-05 -5.00093334E-06  0.00000000E+00  0.00000000E+00 -1.35943694E-04
 -1.25514766E-04 -1.36397224E-04 -1.34121813E-04 -1.36397224E-04 -1.34121813E-04
  9.56150093E-02 -1.72680101E-01 -2.40541391E-05  1.61073157E-04  0.00000000E+00
 -8.49273275E-01 -5.12013618E-05  1.27438977E-04  0.00000000E+00  1.37740160E+00
  5.46842163E-05 -3.02587955E-04  0.00000000E+00  5.81299252E-03  1.30315956E-02
  5.11685439E-03 -2.73638264E-03  0.00000000E+00  0.00000000E+00  2.02470242E-02
  1.69706215E-02  2.02447929E-02  1.69209103E-02  2.02447929E-02  1.69209103E-02
 -5.82718052E-06  5.54441357E-06 -1.89711089E-01 -5.65779298E-02  0.00000000E+00
  1.05596879E-04 -1.89046699E-01 -5.63058765E-02  0.00000000E+00  1.02930926E-04
  1.11841043E+00  3.33753019E-01  0.00000000E+00 -1.27832292E-02 -1.13029488E-03
  1.39171681E-02 -4.39263929E-03  0.00000000E+00  0.00000000E+00 -3.95394594E-02
 -1.68887055E-01  1.97504165E-02  8.43359448E-02  1.97504165E-02  8.43359448E-02
  0.00000000E+00  0.00000000E+00  0.00000000E+00  0.00000000E+00 -1.97926787E-01
  0.00000000E+00  0.00000000E+00  0.00000000E+00 -1.97266634E-01  0.00000000E+00
  0.00000000E+00  0.00000000E+00  1.16715850E+00  0.00000000E+00  0.00000000E+00
  0.00000000E+00  0.00000000E+00  1.54003910E-02  4.62533525E-03  0.00000000E+00
  0.00000000E+00 -3.42532741E-02 -1.46260788E-01  3.42532741E-02  1.46260788E-01
  5.41724103E-05 -9.84345205E-05  7.42342145E-02 -2.48697133E-01  0.00000000E+00
 -5.27737192E-04  1.09971156E-01 -3.68342923E-01  0.00000000E+00  2.84691285E-04
 -3.23494522E-01  1.08410294E+00  0.00000000E+00  9.78061580E-06  4.95221505E-06
  2.42770756E-05  2.71265640E-06  0.00000000E+00  0.00000000E+00  2.47762960E-05
  1.21387621E-04  5.23901552E-05  1.57369597E-04  5.23901552E-05  1.57369597E-04
 -1.26633006E-01  1.33523931E-01  3.29512712E-03  6.31702900E-04  0.00000000E+00
  2.28839589E+00  1.52601745E-02  3.14420495E-03  0.00000000E+00  1.26510224E+00
  4.09831035E-03  8.64639780E-04  0.00000000E+00 -2.60196390E-02  1.94110651E-02
 -2.98740456E-02 -1.72211363E-02  0.00000000E+00  0.00000000E+00 -1.49181443E-01
 -1.46139003E+00 -1.46759531E-01 -1.42975831E+00 -1.46759531E-01 -1.42975831E+00
  0.00000000E+00  0.00000000E+00  0.00000000E+00  0.00000000E+00 -3.27669114E-01
  0.00000000E+00  0.00000000E+00  0.00000000E+00 -1.54117142E+00  0.00000000E+00
  0.00000000E+00  0.00000000E+00 -4.35550328E-01  0.00000000E+00  0.00000000E+00
  0.00000000E+00  0.00000000E+00 -3.11931694E-02 -9.35353652E-03  0.00000000E+00
  0.00000000E+00  1.32366533E-01  1.79226538E+00 -1.32366533E-01 -1.79226538E+00
 -1.30824394E-03  1.36402409E-03 -3.13887026E-01 -9.38307110E-02  0.00000000E+00
  2.38507255E-02 -1.47760072E+00 -4.41729621E-01  0.00000000E+00  1.33123275E-02
 -4.17855881E-01 -1.24951430E-01  0.00000000E+00  2.56338986E-02  2.50241155E-03
 -2.85108839E-02  8.73580133E-03  0.00000000E+00  0.00000000E+00  1.51248575E-01
  2.05563123E+00 -7.78787192E-02 -1.05050285E+00 -7.78787192E-02 -1.05050285E+00
  0.00000000E+00  0.00000000E+00  0.00000000E+00  0.00000000E+00 -9.62257553E-01
  0.00000000E+00  0.00000000E+00  0.00000000E+00  1.81965111E+00  0.00000000E+00
  0.00000000E+00  0.00000000E+00 -5.51028216E-01  0.00000000E+00  0.00000000E+00
  0.00000000E+00  0.00000000E+00  8.20280278E-02  2.46144570E-02  0.00000000E+00
  0.00000000E+00 -2.43257904E-01 -2.77790476E-01  2.43257904E-01  2.77790476E-01
  9.48782507E-06 -2.14617881E-04 -9.21979200E-01 -2.75582425E-01  0.00000000E+00
 -7.84625323E-05  1.74439610E+00  5.21430248E-01  0.00000000E+00 -4.18782808E-04
 -5.27724626E-01 -1.57743145E-01  0.00000000E+00 -6.81430630E-02 -6.05916010E-03
  7.41614678E-02 -2.34278512E-02  0.00000000E+00  0.00000000E+00 -2.80922158E-01
 -3.21598112E-01  1.40378030E-01  1.61316584E-01  1.40378030E-01  1.61316584E-01
  4.37942389E-05  7.81613479E-05  3.08527081E-01 -1.03217114E+00  0.00000000E+00
 -7.54154359E-04 -4.04902739E-01  1.35465660E+00  0.00000000E+00 -5.82662887E-05
  1.67356935E-01 -5.59903733E-01  0.00000000E+00  4.90903060E-05 -5.25722341E-05
  6.20585995E-05  3.65827747E-05  0.00000000E+00  0.00000000E+00  2.01487624E-04
  1.94101295E-04  2.12040105E-04  2.11504594E-04  2.12040105E-04  2.11504594E-04
 -5.29208215E-02 -1.29599794E+00  5.44540795E-04 -2.36365666E-04  0.00000000E+00
  2.35934277E+00 -1.02550811E-03 -3.72765426E-04  0.00000000E+00 -8.76598668E-01
 -9.34219881E-05 -2.46045812E-06  0.00000000E+00 -1.63194540E-01  5.79028803E-02
 -1.84680730E-01 -8.38115549E-02  0.00000000E+00  0.00000000E+00 -4.67855364E-01
  1.45141778E-01 -4.67388192E-01  1.43429228E-01 -4.67388192E-01  1.43429228E-01
  0.00000000E+00  0.00000000E+00  0.00000000E+00  0.00000000E+00  6.50153078E-01
  0.00000000E+00  0.00000000E+00  0.00000000E+00 -9.09010914E-01  0.00000000E+00
  0.00000000E+00  0.00000000E+00 -3.94279495E-01  0.00000000E+00  0.00000000E+00
  0.00000000E+00  0.00000000E+00  2.51509537E-01  7.55111013E-02  0.00000000E+00
  0.00000000E+00 -8.20116813E-01  1.56324147E+00  8.20116813E-01 -1.56324147E+00
 -5.18764584E-05  3.68284321E-03  6.23006449E-01  1.86241913E-01  0.00000000E+00
 -8.30707985E-03 -8.71022385E-01 -2.60381821E-01  0.00000000E+00 -7.54429162E-04
 -3.77978265E-01 -1.12998648E-01  0.00000000E+00 -2.08821010E-01 -1.81623845E-02
  2.27531251E-01 -7.19021350E-02  0.00000000E+00  0.00000000E+00 -9.48105765E-01
  1.80825506E+00  4.72593221E-01 -8.99527067E-01  4.72593221E-01 -8.99527067E-01
  3.49352046E-02 -1.42761971E+00  1.28890000E-03  8.96930579E-04  0.00000000E+00
  3.33352148E+00 -1.91129742E-03 -1.61199283E-03  0.00000000E+00  5.41039536E-01
 -8.76285511E-04 -6.65116826E-04  0.00000000E+00 -7.46133927E-03 -1.88042493E-01
  1.11502513E-02  6.84537087E-02  0.00000000E+00  0.00000000E+00  5.59733612E-01
 -1.45335448E+00  5.62862491E-01 -1.45946085E+00  5.62862491E-01 -1.45946085E+00
  1.35323119E-08 -3.62589055E-07  3.93288066E-06  1.15118124E-06  0.00000000E+00
  3.47802174E-07  5.54352572E-05  2.05290346E-05  0.00000000E+00 -2.46036378E-08
 -1.32600599E-05 -5.46626279E-06  0.00000000E+00 -4.74315574E-01  4.75401017E-01
 -1.08522030E-03  8.36268470E-01  0.00000000E+00  0.00000000E+00 -4.18415280E-05
 -4.95556713E-06  2.08765823E-05  2.40880895E-06  2.08765823E-05  2.40880895E-06
  0.00000000E+00  0.00000000E+00  0.00000000E+00  0.00000000E+00  3.82952701E-06
  0.00000000E+00  0.00000000E+00  0.00000000E+00  5.93631652E-05  0.00000000E+00
  0.00000000E+00  0.00000000E+00 -1.42299608E-05  0.00000000E+00  0.00000000E+00
  0.00000000E+00  0.00000000E+00 -2.87619981E-01  9.57744614E-01  0.00000000E+00
  0.00000000E+00 -3.61700382E-05 -4.57572985E-06  3.61700382E-05  4.57572985E-06
  5.80077810E-02  1.81836220E-01  3.61497182E-05  9.69397311E-05  0.00000000E+00
 -8.50125497E-01  5.43181720E-04  6.55828326E-04  0.00000000E+00  1.66957731E-01
 -8.54344137E-05 -1.44243643E-04  0.00000000E+00 -3.72136559E-01  9.61769915E-01
 -5.04114279E-01 -5.05645901E-01  0.00000000E+00  0.00000000E+00  4.64769066E-01
 -2.27329832E-02  4.65629081E-01 -2.26011276E-02  4.65629081E-01 -2.26011276E-02
  5.62801896E-05 -1.61683413E-05 -1.30047641E-01 -3.88770506E-02  0.00000000E+00
 -4.19235295E-04 -5.58852666E-01 -1.67066474E-01  0.00000000E+00  2.71704452E-04
  1.73835028E-01  5.19672517E-02  0.00000000E+00 -8.82992220E-01 -7.75238655E-02
  9.60657585E-01 -3.03669375E-01  0.00000000E+00  0.00000000E+00  8.44656010E-01
 -1.56995294E-01 -4.21596727E-01  7.81758475E-02 -4.21596727E-01  7.81758475E-02
  0.00000000E+00  0.00000000E+00  0.00000000E+00  0.00000000E+00 -1.35736802E-01
  0.00000000E+00  0.00000000E+00  0.00000000E+00 -5.82659547E-01  0.00000000E+00
  0.00000000E+00  0.00000000E+00  1.81520890E-01  0.00000000E+00  0.00000000E+00
  0.00000000E+00  0.00000000E+00  1.06285124E+00  3.19181489E-01  0.00000000E+00
  0.00000000E+00  7.31210904E-01 -1.36374873E-01 -7.31210904E-01  1.36374873E-01
 -4.66724860E-01  3.05845126E+00 -6.99808816E-06  7.54389190E-05  0.00000000E+00
  1.78943389E+00 -8.92781137E-05 -2.84356824E-04  0.00000000E+00 -4.88278714E-02
 -4.23427339E-06 -1.33479614E-04  0.00000000E+00 -1.85673178E+00 -1.80995660E+00
 -1.86119983E+00 -1.77309377E-02  0.00000000E+00  0.00000000E+00  1.73272645E-01
 -4.15599969E-01  1.73190614E-01 -4.15703205E-01  1.73190614E-01 -4.15703205E-01
Beta MO coefficients                       R   N=         625
  9.92995842E-01  4.70446875E-02  3.90726802E-07 -1.54057987E-06  0.00000000E+00
 -1.04731204E-02  2.98092576E-07  1.92087492E-06  0.00000000E+00  7.05704514E-04
  1.05492648E-07  4.10130722E-07  0.00000000E+00 -8.69067999E-03 -9.60431876E-03
 -8.60158187E-03  3.46348373E-04  0.00000000E+00  0.00000000E+00 -3.83786425E-04
  1.76971526E-03 -3.83515156E-04  1.77038447E-03 -3.83515156E-04  1.77038447E-03
 -1.97398257E-01  3.87803961E-01  2.59000517E-05 -2.05949529E-04  0.00000000E+00
  3.42377490E-01  1.12926471E-06 -7.03549344E-05  0.00000000E+00  1.15818373E-02
 -3.06332076E-07 -5.21902376E-07  0.00000000E+00  1.15790783E-02 -2.79513762E-02
  1.54362921E-02  1.49848481E-02  0.00000000E+00  0.00000000E+00  1.59607032E-01
  5.95029607E-02  1.59604182E-01  5.94926401E-02  1.59604182E-01  5.94926401E-02
 -2.02149980E-05  4.52245755E-05  4.27615764E-01  1.27834194E-01  0.00000000E+00
  3.82153746E-05  1.69658433E-01  5.07189899E-02  0.00000000E+00  7.04398611E-06
  2.91584039E-02  8.71488182E-03  0.00000000E+00  1.86216985E-02  1.63698382E-03
 -2.02646074E-02  6.37811615E-03  0.00000000E+00  0.00000000E+00  2.93728584E-01
  2.16676305E-01 -1.46872545E-01 -1.08345904E-01 -1.46872545E-01 -1.08345904E-01
  0.00000000E+00  0.00000000E+00  0.00000000E+00  0.00000000E+00  4.46308333E-01
  0.00000000E+00  0.00000000E+00  0.00000000E+00  1.77110129E-01  0.00000000E+00
  0.00000000E+00  0.00000000E+00  3.04534958E-02  0.00000000E+00  0.00000000E+00
  0.00000000E+00  0.00000000E+00 -2.24193945E-02 -6.75466599E-03  0.00000000E+00
  0.00000000E+00  2.54372983E-01  1.87718514E-01 -2.54372983E-01 -1.87718514E-01
 -1.19921523E-04  2.48261873E-04 -1.33581408E-01  4.46854695E-01  0.00000000E+00
  4.19163898E-04 -1.24447924E-01  4.16282035E-01  0.00000000E+00  1.05779485E-04
 -1.01840164E-01  3.40555257E-01  0.00000000E+00  1.58334076E-05 -4.63296518E-05
  2.05123801E-05  2.14574663E-05  0.00000000E+00  0.00000000E+00 -1.04304930E-04
 -4.02799993E-05 -1.05552920E-04 -6.36330463E-05 -1.05552920E-04 -6.36330463E-05
  9.55407418E-02 -1.51347004E-01 -2.84016434E-05  1.83482899E-04  0.00000000E+00
 -8.56861429E-01 -4.64810815E-05  1.41692600E-04  0.00000000E+00  1.40369696E+00
  7.39213058E-05 -4.00821200E-04  0.00000000E+00  2.65568008E-03  2.28008114E-02
  6.92934402E-04 -7.63646861E-03  0.00000000E+00  0.00000000E+00  1.19283278E-02
  1.35059946E-04  1.19286347E-02  1.00880297E-04  1.19286347E-02  1.00880297E-04
 -4.75231466E-06  5.14846263E-06 -1.81445512E-01 -5.41744908E-02  0.00000000E+00
  8.24188303E-05 -1.81103981E-01 -5.40238325E-02  0.00000000E+00  1.01925466E-04
  1.12526220E+00  3.36199272E-01  0.00000000E+00 -1.31713345E-02 -1.16329404E-03
  1.43393172E-02 -4.52085887E-03  0.00000000E+00  0.00000000E+00 -4.59896669E-02
 -1.91847330E-01  2.29782857E-02  9.58340841E-02  2.29782857E-02  9.58340841E-02
  0.00000000E+00  0.00000000E+00  0.00000000E+00  0.00000000E+00 -1.89314399E-01
  0.00000000E+00  0.00000000E+00  0.00000000E+00 -1.88992573E-01  0.00000000E+00
  0.00000000E+00  0.00000000E+00  1.17442209E+00  0.00000000E+00  0.00000000E+00
  0.00000000E+00  0.00000000E+00  1.58651171E-02  4.76984111E-03  0.00000000E+00
  0.00000000E+00 -3.98438451E-02 -1.66168147E-01  3.98438451E-02  1.66168147E-01
  9.58366750E-05 -1.46647313E-04  9.37304771E-02 -3.13688785E-01  0.00000000E+00
 -7.79294111E-04  1.59359397E-01 -5.33338929E-01  0.00000000E+00  4.02368394E-04
 -3.15842233E-01  1.05718092E+00  0.00000000E+00  2.98132344E-06  3.96497240E-05
  4.44047475E-06 -1.28892379E-05  0.00000000E+00  0.00000000E+00  5.67995752E-05
  2.01973265E-04  6.64060681E-05  1.52322783E-04  6.64060681E-05  1.52322783E-04
  0.00000000E+00  0.00000000E+00  0.00000000E+00  0.00000000E+00 -3.31640838E-01
  0.00000000E+00  0.00000000E+00  0.00000000E+00 -1.55993998E+00  0.00000000E+00
  0.00000000E+00  0.00000000E+00 -4.20488178E-01  0.00000000E+00  0.00000000E+00
  0.00000000E+00  0.00000000E+00 -2.84080307E-02 -8.48761271E-03  0.00000000E+00
  0.00000000E+00  1.22428867E-01  1.79838857E+00 -1.22428867E-01 -1.79838857E+00
  5.75348697E-04 -6.58017443E-04 -3.17701864E-01 -9.49646944E-02  0.00000000E+00
 -9.74084289E-03 -1.49564445E+00 -4.47096497E-01  0.00000000E+00 -5.07440064E-03
 -4.03457492E-01 -1.20646373E-01  0.00000000E+00  2.36306440E-02  2.12584083E-03
 -2.56093927E-02  8.15737343E-03  0.00000000E+00  0.00000000E+00  1.41868314E-01
  2.08389215E+00 -7.00594377E-02 -1.03299681E+00 -7.00594377E-02 -1.03299681E+00
 -1.35222017E-01  1.50891382E-01 -1.30519330E-03 -7.23881158E-04  0.00000000E+00
  2.34367642E+00 -6.34360461E-03 -3.32780227E-03  0.00000000E+00  1.25643399E+00
 -1.92728266E-03 -9.31948887E-04  0.00000000E+00 -1.43095357E-02 -3.87576631E-03
 -1.55333170E-02 -3.95504102E-03  0.00000000E+00  0.00000000E+00 -1.31443856E-01
 -1.45569070E+00 -1.32288138E-01 -1.46936989E+00 -1.32288138E-01 -1.46936989E+00
  0.00000000E+00  0.00000000E+00  0.00000000E+00  0.00000000E+00 -9.56225638E-01
  0.00000000E+00  0.00000000E+00  0.00000000E+00  1.80078680E+00  0.00000000E+00
  0.00000000E+00  0.00000000E+00 -5.52137616E-01  0.00000000E+00  0.00000000E+00
  0.00000000E+00  0.00000000E+00  8.45071946E-02  2.53615843E-02  0.00000000E+00
  0.00000000E+00 -2.56369519E-01 -2.51213147E-01  2.56369519E-01  2.51213147E-01
  9.00425173E-06 -2.10427837E-04 -9.16197661E-01 -2.73890085E-01  0.00000000E+00
 -9.83029428E-05  1.72632276E+00  5.16075389E-01  0.00000000E+00 -4.31048119E-04
 -5.28779466E-01 -1.58078500E-01  0.00000000E+00 -7.02038968E-02 -6.23668408E-03
  7.63977867E-02 -2.41350829E-02  0.00000000E+00  0.00000000E+00 -2.96058629E-01
 -2.90918664E-01  1.47931975E-01  1.46004110E-01  1.47931975E-01  1.46004110E-01
  7.16682796E-05  4.88602138E-04  3.21585242E-01 -1.07574701E+00  0.00000000E+00
 -1.68237350E-03 -3.90802299E-01  1.30729261E+00  0.00000000E+00  1.52164867E-04
  1.55521278E-01 -5.20245132E-01  0.00000000E+00  7.08275171E-05 -2.30344602E-05
  7.69931982E-05  3.17292008E-05  0.00000000E+00  0.00000000E+00  3.20782533E-04
  2.73761152E-04  3.15696009E-04  2.81487083E-04  3.15696009E-04  2.81487083E-04
 -6.17710900E-02 -1.21218050E+00  7.18704199E-04 -5.23138503E-04  0.00000000E+00
  2.26505689E+00 -1.24152443E-03 -7.73714380E-05  0.00000000E+00 -8.73924440E-01
 -9.07266432E-05 -1.20172506E-04  0.00000000E+00 -1.62359106E-01  4.73945235E-02
 -1.82683856E-01 -7.95113116E-02  0.00000000E+00  0.00000000E+00 -5.02089378E-01
  1.84409758E-01 -5.01483784E-01  1.82404562E-01 -5.01483784E-01  1.82404562E-01
  0.00000000E+00  0.00000000E+00  0.00000000E+00  0.00000000E+00  6.71365620E-01
  0.00000000E+00  0.00000000E+00  0.00000000E+00 -9.19699027E-01  0.00000000E+00
  0.00000000E+00  0.00000000E+00 -3.87740306E-01  0.00000000E+00  0.00000000E+00
  0.00000000E+00  0.00000000E+00  2.46926995E-01  7.40675380E-02  0.00000000E+00
  0.00000000E+00 -8.17400321E-01  1.55687145E+00  8.17400321E-01 -1.55687145E+00
 -6.52063173E-06  2.23481727E-03  6.43317543E-01  1.92312755E-01  0.00000000E+00
 -4.79705992E-03 -8.81241236E-01 -2.63436153E-01  0.00000000E+00 -9.78709106E-06
 -3.71720119E-01 -1.11128861E-01  0.00000000E+00 -2.04935776E-01 -1.80968473E-02
  2.23433007E-01 -7.05383818E-02  0.00000000E+00  0.00000000E+00 -9.44266610E-01
  1.79919476E+00  4.71736774E-01 -8.97557681E-01  4.71736774E-01 -8.97557681E-01
  3.90208847E-02 -1.48434517E+00  6.38670227E-04  5.94813075E-04  0.00000000E+00
  3.36404956E+00 -9.71476990E-04 -1.19793299E-03  0.00000000E+00  5.02264575E-01
 -4.35058225E-04 -5.63620242E-04  0.00000000E+00 -3.34132885E-02 -1.53533278E-01
 -2.12539727E-02  4.55337375E-02  0.00000000E+00  0.00000000E+00  5.54383636E-01
 -1.42644533E+00  5.55914202E-01 -1.42949807E+00  5.55914202E-01 -1.42949807E+00
  2.90050230E-08  4.69209089E-07  7.87082005E-05  2.09019805E-05  0.00000000E+00
 -3.80830015E-07  1.00419281E-04  3.58907115E-05  0.00000000E+00  4.37106542E-07
 -4.82384354E-05 -1.65589411E-05  0.00000000E+00 -4.74233534E-01  4.75409828E-01
 -1.17724795E-03  8.36296060E-01  0.00000000E+00  0.00000000E+00 -1.92138333E-04
  7.34171404E-05  9.77498721E-05 -3.74458461E-05  9.77498721E-05 -3.74458461E-05
  0.00000000E+00  0.00000000E+00  0.00000000E+00  0.00000000E+00  8.14604841E-05
  0.00000000E+00  0.00000000E+00  0.00000000E+00  1.06610870E-04  0.00000000E+00
  0.00000000E+00  0.00000000E+00 -5.10187614E-05  0.00000000E+00  0.00000000E+00
  0.00000000E+00  0.00000000E+00 -2.87720710E-01  9.57714354E-01  0.00000000E+00
  0.00000000E+00 -1.67839388E-04  6.41849344E-05  1.67839388E-04 -6.41849344E-05
  4.88110109E-02  2.36136672E-01  6.38915605E-05  1.47569231E-04  0.00000000E+00
 -8.79276708E-01  7.24897550E-04  6.94059407E-04  0.00000000E+00  1.49200077E-01
 -1.40088172E-04 -1.44197728E-04  0.00000000E+00 -3.78086559E-01  9.64374528E-01
 -5.11533981E-01 -5.08891768E-01  0.00000000E+00  0.00000000E+00  4.36808237E-01