ts                                                                      
Freq      UB3LYP                                                      6-31+G(d)           
Number of atoms                            I               10
Charge                                     I                0
Multiplicity                               I                2
Number of electrons                        I               25
Number of alpha electrons                  I               13
Number of beta electrons                   I               12
Number of basis functions                  I               71
Number of independant functions            I               71
Number of point charges in /Mol/           I                0
Number of translation vectors              I                0
Info1-9                                    I   N=           9
          20          20        1002           0           1         100
           6          18        -502
Num ILSW                                   I              100
ILSW                                       I   N=         100
           1           1           0           0           2           0
           0           0           0           0         402      200000
           0           0          -1           0           0           0
           0      800000           1           0           1           0
           1           0           0           0     1000000           0
           0           0      100000           0          -1           0
           0           0           0           0           0           0
           0           0           0           1           0           0
           0           0           1      720000      810000           0
           0           0           0           0           0           0
           0           0           0           0           0           0
           0           0           0           0           0           0
           0           0           0           0           0           0
           0           0           0           0           0           0
           0           0           0           0           0           0
           0           0           0           0           0           0
           0           0           0           0
Number of contracted shells                I               29
Highest angular momentum                   I                2
Largest degree of contraction              I                6
Number of primitive shells                 I               64
Pure/Cartesian d shells                    I                1
Pure/Cartesian f shells                    I                0
Virial Ratio                               R      2.010829704983818E+00
SCF Energy                                 R     -1.184269202641487E+02
Total Energy                               R     -1.184269202641487E+02
S**2                                       R      7.788900542222024E-01
S**2 after annihilation                    R      7.501684121905398E-01
RMS Force                                  R      1.559802723647972E-05
RMS Density                                R      1.210472900908083E-09
Atomic numbers                             I   N=          10
           6           1           1           6           1           1
           1           6           1           1
Nuclear charges                            R   N=          10
  6.00000000E+00  1.00000000E+00  1.00000000E+00  6.00000000E+00  1.00000000E+00
  1.00000000E+00  1.00000000E+00  6.00000000E+00  1.00000000E+00  1.00000000E+00
Current cartesian coordinates              R   N=          30
  2.66994916E+00 -7.00699971E-01 -4.49637408E-05  3.33776940E+00 -1.54737736E+00
 -1.74893715E+00  3.33729283E+00 -1.54890923E+00  1.74826432E+00  9.60952644E-01
  1.21841337E+00  2.09895983E-04  4.83184411E-01  2.19716118E+00  1.74074983E+00
  4.83999914E-01  2.19778132E+00 -1.74018869E+00 -3.10337386E+00 -1.55414227E+00
 -1.72540382E+00 -3.16263635E+00 -4.47607415E-01 -1.20356172E-04 -3.13196338E+00
 -1.47951190E+00  1.77162145E+00 -4.21650203E+00  1.31436235E+00 -4.63733973E-02
Int Atom Types                             I   N=          10
           0           0           0           0           0           0
           0           0           0           0
Force Field                                I                0
MM charges                                 R   N=          10
  0.00000000E+00  0.00000000E+00  0.00000000E+00  0.00000000E+00  0.00000000E+00
  0.00000000E+00  0.00000000E+00  0.00000000E+00  0.00000000E+00  0.00000000E+00
Integer atomic weights                     I   N=          10
          12           1           1          12           1           1
           1          12           1           1
Real atomic weights                        R   N=          10
  1.20000000E+01  1.00782504E+00  1.00782504E+00  1.20000000E+01  1.00782504E+00
  1.00782504E+00  1.00782504E+00  1.20000000E+01  1.00782504E+00  1.00782504E+00
Atom residue info                          I   N=          10
           0           0           0           0           0           0
           0           0           0           0
Atom fragment info                         I   N=          10
           0           0           0           0           0           0
           0           0           0           0
Atom residue num                           I   N=          10
           0           0           0           0           0           0
           0           0           0           0
Nuclear spins                              I   N=          10
           0           1           1           0           1           1
           1           0           1           1
Nuclear ZEff                               R   N=          10
 -3.60000000E+00 -1.00000000E+00 -1.00000000E+00 -3.60000000E+00 -1.00000000E+00
 -1.00000000E+00 -1.00000000E+00 -3.60000000E+00 -1.00000000E+00 -1.00000000E+00
Nuclear QMom                               R   N=          10
  0.00000000E+00  0.00000000E+00  0.00000000E+00  0.00000000E+00  0.00000000E+00
  0.00000000E+00  0.00000000E+00  0.00000000E+00  0.00000000E+00  0.00000000E+00
Nuclear GFac                               R   N=          10
  0.00000000E+00  2.79284600E+00  2.79284600E+00  0.00000000E+00  2.79284600E+00
  2.79284600E+00  2.79284600E+00  0.00000000E+00  2.79284600E+00  2.79284600E+00
MicOpt                                     I   N=          10
          -1          -1          -1          -1          -1          -1
          -1          -1          -1          -1
Constraint Structure                       R   N=          30
  2.66994916E+00 -7.00699971E-01 -4.49637408E-05  3.33776940E+00 -1.54737736E+00
 -1.74893715E+00  3.33729283E+00 -1.54890923E+00  1.74826432E+00  9.60952644E-01
  1.21841337E+00  2.09895983E-04  4.83184411E-01  2.19716118E+00  1.74074983E+00
  4.83999914E-01  2.19778132E+00 -1.74018869E+00 -3.10337386E+00 -1.55414227E+00
 -1.72540382E+00 -3.16263635E+00 -4.47607415E-01 -1.20356172E-04 -3.13196338E+00
 -1.47951190E+00  1.77162145E+00 -4.21650203E+00  1.31436235E+00 -4.63733973E-02
ONIOM Charges                              I   N=          16
           0           0           0           0           0           0
           0           0           0           0           0           0
           0           0           0           0
ONIOM Multiplicities                       I   N=          16
           2           0           0           0           0           0
           0           0           0           0           0           0
           0           0           0           0
Atom Layers                                I   N=          10
           0           0           0           0           0           0
           0           0           0           0
Atom Modifiers                             I   N=          10
           0           0           0           0           0           0
           0           0           0           0
Int Atom Modified Types                    I   N=          10
           0           0           0           0           0           0
           0           0           0           0
Link Atoms                                 I   N=          10
           0           0           0           0           0           0
           0           0           0           0
Atom Modified MM Charges                   R   N=          10
  0.00000000E+00  0.00000000E+00  0.00000000E+00  0.00000000E+00  0.00000000E+00
  0.00000000E+00  0.00000000E+00  0.00000000E+00  0.00000000E+00  0.00000000E+00
Link Distances                             R   N=          40
  0.00000000E+00  0.00000000E+00  0.00000000E+00  0.00000000E+00  0.00000000E+00
  0.00000000E+00  0.00000000E+00  0.00000000E+00  0.00000000E+00  0.00000000E+00
  0.00000000E+00  0.00000000E+00  0.00000000E+00  0.00000000E+00  0.00000000E+00
  0.00000000E+00  0.00000000E+00  0.00000000E+00  0.00000000E+00  0.00000000E+00
  0.00000000E+00  0.00000000E+00  0.00000000E+00  0.00000000E+00  0.00000000E+00
  0.00000000E+00  0.00000000E+00  0.00000000E+00  0.00000000E+00  0.00000000E+00
  0.00000000E+00  0.00000000E+00  0.00000000E+00  0.00000000E+00  0.00000000E+00
  0.00000000E+00  0.00000000E+00  0.00000000E+00  0.00000000E+00  0.00000000E+00
MxBond                                     I                3
NBond                                      I   N=          10
           3           1           1           3           1           1
           1           3           1           1
IBond                                      I   N=          30
           2           3           4           1           0           0
           1           0           0           1           5           6
           4           0           0           4           0           0
           8           0           0           7           9          10
           8           0           0           8           0           0
RBond                                      R   N=          30
  1.00000000E+00  1.00000000E+00  2.00000000E+00  1.00000000E+00  0.00000000E+00
  0.00000000E+00  1.00000000E+00  0.00000000E+00  0.00000000E+00  2.00000000E+00
  1.00000000E+00  1.00000000E+00  1.00000000E+00  0.00000000E+00  0.00000000E+00
  1.00000000E+00  0.00000000E+00  0.00000000E+00  1.00000000E+00  0.00000000E+00
  0.00000000E+00  1.00000000E+00  1.00000000E+00  1.00000000E+00  1.00000000E+00
  0.00000000E+00  0.00000000E+00  1.00000000E+00  0.00000000E+00  0.00000000E+00
Shell types                                I   N=          29
           0          -1          -1          -1           2           0
           0           0           0           0          -1          -1
          -1           2           0           0           0           0
           0           0           0          -1          -1          -1
           2           0           0           0           0
Number of primitives per shell             I   N=          29
           6           3           1           1           1           3
           1           3           1           6           3           1
           1           1           3           1           3           1
           3           1           6           3           1           1
           1           3           1           3           1
Shell to atom map                          I   N=          29
           1           1           1           1           1           2
           2           3           3           4           4           4
           4           4           5           5           6           6
           7           7           8           8           8           8
           8           9           9          10          10
Primitive exponents                        R   N=          64
  3.04752488E+03  4.57369518E+02  1.03948685E+02  2.92101553E+01  9.28666296E+00
  3.16392696E+00  7.86827235E+00  1.88128854E+00  5.44249258E-01  1.68714478E-01
  4.38000000E-02  8.00000000E-01  1.87311370E+01  2.82539436E+00  6.40121692E-01
  1.61277759E-01  1.87311370E+01  2.82539436E+00  6.40121692E-01  1.61277759E-01
  3.04752488E+03  4.57369518E+02  1.03948685E+02  2.92101553E+01  9.28666296E+00
  3.16392696E+00  7.86827235E+00  1.88128854E+00  5.44249258E-01  1.68714478E-01
  4.38000000E-02  8.00000000E-01  1.87311370E+01  2.82539436E+00  6.40121692E-01
  1.61277759E-01  1.87311370E+01  2.82539436E+00  6.40121692E-01  1.61277759E-01
  1.87311370E+01  2.82539436E+00  6.40121692E-01  1.61277759E-01  3.04752488E+03
  4.57369518E+02  1.03948685E+02  2.92101553E+01  9.28666296E+00  3.16392696E+00
  7.86827235E+00  1.88128854E+00  5.44249258E-01  1.68714478E-01  4.38000000E-02
  8.00000000E-01  1.87311370E+01  2.82539436E+00  6.40121692E-01  1.61277759E-01
  1.87311370E+01  2.82539436E+00  6.40121692E-01  1.61277759E-01
Contraction coefficients                   R   N=          64
  1.83473713E-03  1.40373228E-02  6.88426223E-02  2.32184443E-01  4.67941348E-01
  3.62311985E-01 -1.19332420E-01 -1.60854152E-01  1.14345644E+00  1.00000000E+00
  1.00000000E+00  1.00000000E+00  3.34946043E-02  2.34726953E-01  8.13757326E-01
  1.00000000E+00  3.34946043E-02  2.34726953E-01  8.13757326E-01  1.00000000E+00
  1.83473713E-03  1.40373228E-02  6.88426223E-02  2.32184443E-01  4.67941348E-01
  3.62311985E-01 -1.19332420E-01 -1.60854152E-01  1.14345644E+00  1.00000000E+00
  1.00000000E+00  1.00000000E+00  3.34946043E-02  2.34726953E-01  8.13757326E-01
  1.00000000E+00  3.34946043E-02  2.34726953E-01  8.13757326E-01  1.00000000E+00
  3.34946043E-02  2.34726953E-01  8.13757326E-01  1.00000000E+00  1.83473713E-03
  1.40373228E-02  6.88426223E-02  2.32184443E-01  4.67941348E-01  3.62311985E-01
 -1.19332420E-01 -1.60854152E-01  1.14345644E+00  1.00000000E+00  1.00000000E+00
  1.00000000E+00  3.34946043E-02  2.34726953E-01  8.13757326E-01  1.00000000E+00
  3.34946043E-02  2.34726953E-01  8.13757326E-01  1.00000000E+00
P(S=P) Contraction coefficients            R   N=          64
  0.00000000E+00  0.00000000E+00  0.00000000E+00  0.00000000E+00  0.00000000E+00
  0.00000000E+00  6.89990666E-02  3.16423961E-01  7.44308291E-01  1.00000000E+00
  1.00000000E+00  0.00000000E+00  0.00000000E+00  0.00000000E+00  0.00000000E+00
  0.00000000E+00  0.00000000E+00  0.00000000E+00  0.00000000E+00  0.00000000E+00
  0.00000000E+00  0.00000000E+00  0.00000000E+00  0.00000000E+00  0.00000000E+00
  0.00000000E+00  6.89990666E-02  3.16423961E-01  7.44308291E-01  1.00000000E+00
  1.00000000E+00  0.00000000E+00  0.00000000E+00  0.00000000E+00  0.00000000E+00
  0.00000000E+00  0.00000000E+00  0.00000000E+00  0.00000000E+00  0.00000000E+00
  0.00000000E+00  0.00000000E+00  0.00000000E+00  0.00000000E+00  0.00000000E+00
  0.00000000E+00  0.00000000E+00  0.00000000E+00  0.00000000E+00  0.00000000E+00
  6.89990666E-02  3.16423961E-01  7.44308291E-01  1.00000000E+00  1.00000000E+00
  0.00000000E+00  0.00000000E+00  0.00000000E+00  0.00000000E+00  0.00000000E+00
  0.00000000E+00  0.00000000E+00  0.00000000E+00  0.00000000E+00
Coordinates of each shell                  R   N=          87
  2.66994916E+00 -7.00699971E-01 -4.49637408E-05  2.66994916E+00 -7.00699971E-01
 -4.49637408E-05  2.66994916E+00 -7.00699971E-01 -4.49637408E-05  2.66994916E+00
 -7.00699971E-01 -4.49637408E-05  2.66994916E+00 -7.00699971E-01 -4.49637408E-05
  3.33776940E+00 -1.54737736E+00 -1.74893715E+00  3.33776940E+00 -1.54737736E+00
 -1.74893715E+00  3.33729283E+00 -1.54890923E+00  1.74826432E+00  3.33729283E+00
 -1.54890923E+00  1.74826432E+00  9.60952644E-01  1.21841337E+00  2.09895983E-04
  9.60952644E-01  1.21841337E+00  2.09895983E-04  9.60952644E-01  1.21841337E+00
  2.09895983E-04  9.60952644E-01  1.21841337E+00  2.09895983E-04  9.60952644E-01
  1.21841337E+00  2.09895983E-04  4.83184411E-01  2.19716118E+00  1.74074983E+00
  4.83184411E-01  2.19716118E+00  1.74074983E+00  4.83999914E-01  2.19778132E+00
 -1.74018869E+00  4.83999914E-01  2.19778132E+00 -1.74018869E+00 -3.10337386E+00
 -1.55414227E+00 -1.72540382E+00 -3.10337386E+00 -1.55414227E+00 -1.72540382E+00
 -3.16263635E+00 -4.47607415E-01 -1.20356172E-04 -3.16263635E+00 -4.47607415E-01
 -1.20356172E-04 -3.16263635E+00 -4.47607415E-01 -1.20356172E-04 -3.16263635E+00
 -4.47607415E-01 -1.20356172E-04 -3.16263635E+00 -4.47607415E-01 -1.20356172E-04
 -3.13196338E+00 -1.47951190E+00  1.77162145E+00 -3.13196338E+00 -1.47951190E+00
  1.77162145E+00 -4.21650203E+00  1.31436235E+00 -4.63733973E-02 -4.21650203E+00
  1.31436235E+00 -4.63733973E-02
Alpha Orbital Energies                     R   N=          71
 -1.01986284E+01 -1.01946752E+01 -1.01912946E+01 -7.63443053E-01 -6.81692321E-01
 -5.85622505E-01 -4.71033166E-01 -4.26240391E-01 -4.12274188E-01 -4.08147964E-01
 -3.60446651E-01 -3.02712896E-01 -1.93850225E-01  4.30924496E-03  1.96201122E-02
  3.12516594E-02  4.42956915E-02  5.15726086E-02  7.69999330E-02  7.72030423E-02
  8.90371889E-02  9.18747413E-02  9.38055311E-02  1.20476857E-01  1.29658427E-01
  1.50772603E-01  1.80485238E-01  2.17794177E-01  2.23662418E-01  2.48106154E-01
  2.93925375E-01  3.12583094E-01  3.41564592E-01  3.48177921E-01  5.79882441E-01
  6.14968785E-01  6.41389809E-01  6.65178826E-01  6.86004316E-01  7.13532286E-01
  7.40610809E-01  7.81229830E-01  8.01189019E-01  9.07783851E-01  9.26447053E-01
  9.78131957E-01  9.83693442E-01  1.01668134E+00  1.05289332E+00  1.07117752E+00
  1.14451681E+00  1.18209389E+00  1.37891935E+00  1.48893426E+00  1.58613609E+00
  1.67207639E+00  1.69496585E+00  1.80415722E+00  1.88908429E+00  2.05331633E+00
  2.06006617E+00  2.10716042E+00  2.24916432E+00  2.25262290E+00  2.27883020E+00
  2.37517461E+00  2.67045469E+00  2.70093139E+00  4.13195083E+00  4.20731392E+00
  4.33465625E+00
Beta Orbital Energies                      R   N=          71
 -1.02011339E+01 -1.01856034E+01 -1.01825101E+01 -7.57533032E-01 -6.51500077E-01
 -5.80144437E-01 -4.69142522E-01 -4.22010487E-01 -4.04223621E-01 -4.01334700E-01
 -3.58812410E-01 -2.76214313E-01 -6.97925462E-02  1.33952392E-02  2.42787898E-02
  3.22674920E-02  4.45712247E-02  5.86763512E-02  7.71596777E-02  7.73931694E-02
  8.91253479E-02  9.42623617E-02  1.06577223E-01  1.23319259E-01  1.35992218E-01
  1.51812854E-01  1.82589383E-01  2.22825807E-01  2.27364861E-01  2.55758171E-01
  2.99376935E-01  3.16586911E-01  3.42319265E-01  3.50421112E-01  5.83039954E-01
  6.19509410E-01  6.55875574E-01  6.89545857E-01  6.90644511E-01  7.32272235E-01
  7.46985580E-01  8.00279418E-01  8.06890598E-01  9.08769796E-01  9.29344021E-01
  9.81945311E-01  9.88167948E-01  1.02364590E+00  1.05815092E+00  1.08020857E+00
  1.15722793E+00  1.18457229E+00  1.38445342E+00  1.49842664E+00  1.59890649E+00
  1.72181977E+00  1.74127680E+00  1.81061210E+00  1.89939722E+00  2.05557903E+00
  2.10948622E+00  2.12088566E+00  2.26194522E+00  2.26540303E+00  2.28894222E+00
  2.38289932E+00  2.67221973E+00  2.70395260E+00  4.14680334E+00  4.23080890E+00
  4.33418940E+00
Alpha MO coefficients                      R   N=        5041
  4.87338248E-02  1.93542646E-03  2.48823454E-04 -2.92890099E-04  2.63436036E-07
  4.86719057E-03 -1.80759194E-03  1.62769900E-03 -2.31207668E-06 -4.40304213E-03
  5.04766260E-04 -8.46742745E-04 -2.73695707E-06 -6.60755927E-04 -7.72778522E-04
 -6.04878259E-04  1.33487868E-04  3.89663357E-08  5.16943474E-08 -1.18173586E-04
  4.29461252E-05 -1.18022605E-04  4.67627669E-05  9.91760280E-01  4.92835239E-02
 -1.73366210E-04 -1.66981117E-04 -2.15919823E-07 -1.66215114E-02 -4.93101074E-05
  1.30858880E-03  2.18132052E-06  4.21584791E-03  1.66313620E-03 -1.24829668E-03
  2.44250898E-06 -9.13447593E-03 -8.92564861E-03 -8.88380866E-03 -3.76191255E-04
 -3.23615367E-08 -6.18284745E-09 -1.68598479E-04  2.76408603E-03 -1.68514196E-04
  2.76702326E-03 -1.43014812E-04 -4.07437703E-04 -2.70302393E-04 -6.33431029E-04
 -1.08528037E-04  1.62647294E-06 -2.01548436E-07  2.72380628E-03  1.32991797E-03
  2.40276196E-04  2.10489077E-06  3.38856170E-04 -2.90811965E-04  1.25559887E-04
  2.82312642E-07  5.87827883E-05 -2.25487990E-04 -2.19840893E-04  1.26842174E-04
 -6.65035122E-07  1.46525253E-06 -1.41281998E-04 -4.07395499E-04 -7.72521321E-05
 -2.20155348E-04 -1.11626818E-03 -8.12756501E-05  5.79489005E-05  5.56699225E-05
 -1.57152976E-06  1.05110509E-04  3.56093036E-04 -1.43752469E-04  1.53859468E-05
 -7.21699607E-03  1.29850752E-03 -1.30044641E-03  8.51132410E-06 -8.48456992E-05
  2.13828956E-05 -7.27598169E-05 -7.00417940E-06 -2.60722561E-07 -2.01849619E-07
  3.65250648E-05 -2.63971341E-04  3.40167716E-05 -2.80066913E-04  8.94545256E-05
 -5.34325748E-04  1.26787353E-04  4.74054419E-05  1.72359424E-06  2.38632757E-03
 -1.34774475E-03 -4.26895005E-04 -1.68438025E-05  8.99161423E-03  8.26329445E-04
 -1.97038362E-03 -1.19778633E-05  7.41737216E-06 -1.55766540E-04 -1.73582978E-04
  1.02785322E-04 -1.70730700E-07 -1.00548658E-07 -1.35513807E-04 -5.76500884E-04
 -1.36455345E-04 -5.99435725E-04 -2.21363891E-04  2.70654446E-03  9.92660252E-01
  5.06688042E-02  1.25732981E-04  9.46201035E-05 -7.97417707E-07 -1.36932247E-02
 -3.99003779E-04 -2.79439779E-04  8.35856420E-06 -1.55760120E-03 -5.79962191E-04
 -1.92402111E-04  4.17396338E-06 -9.63619384E-03 -9.71608312E-03 -9.71781582E-03
  3.29757662E-05 -1.63597047E-07 -1.85769317E-07 -2.20899298E-04  2.69410861E-03
 -2.43499724E-04  2.91778668E-03  9.91466119E-01  5.00872503E-02 -1.86617608E-04
  7.14983720E-05 -6.19178741E-08 -1.38958794E-02  1.21879178E-03 -1.16741804E-03
  1.87953625E-07  1.09963339E-02 -2.18137374E-03  2.72271498E-03 -1.08732500E-06
 -9.58995412E-03 -9.55419306E-03 -9.62394503E-03 -1.26029891E-04  4.49991123E-08
  1.34788763E-08 -1.82691804E-04  1.50922199E-03 -1.83033028E-04  1.51020198E-03
 -4.91584331E-02 -2.84103977E-03 -2.10705252E-04  2.28024596E-04  2.53906089E-07
  5.50967190E-03  1.26911113E-03 -1.30467205E-03 -1.60563190E-06 -9.02241398E-03
 -2.18317493E-03  1.35483392E-03  8.33375189E-08  2.42139172E-04  2.23995891E-04
  3.33276426E-04  1.29930973E-04  2.24114524E-07  1.11018939E-09 -3.69703396E-05
 -5.20691559E-04 -3.72167257E-05 -5.21490734E-04 -1.92072541E-05 -2.58616544E-04
  1.08982025E-03  5.27675517E-05 -9.63345004E-05  4.53433273E-05 -1.88955609E-06
  2.07676359E-04  5.89446652E-05 -3.28803981E-04  1.16695514E-05 -8.90353685E-04
 -2.85580570E-04 -1.15239901E-04  4.51968171E-06 -1.17611386E-04 -7.36911631E-05
 -3.42749877E-05 -8.62627972E-06 -7.87127253E-07  1.71862763E-06 -1.40840728E-05
 -2.75263933E-04  8.59455344E-06  2.29515325E-04 -1.56289423E-01  3.06585524E-01
 -6.58191474E-02  6.90460653E-02 -5.27691865E-06  2.33300743E-01 -5.95944109E-04
  2.12543894E-03 -3.84821980E-05 -4.74351984E-02  8.70792973E-03 -8.02840515E-03
 -9.93265210E-06 -4.41724162E-03 -1.37333858E-03 -7.74154153E-04 -1.12452870E-02
 -2.89507397E-06 -3.63062656E-06  8.22648105E-02  1.06079369E-02  8.22542544E-02
  1.06328612E-02 -1.56004846E-01  3.01420032E-01  6.83339231E-02 -6.49404720E-02
 -2.09677650E-05  2.37205465E-01 -1.48875051E-03 -5.01523717E-04  2.94584193E-05
  8.20700872E-02 -3.61975777E-04 -1.84630545E-02  1.32433436E-05 -7.87288216E-03
 -1.72130954E-03  2.25150371E-04 -1.40716043E-02 -6.82602620E-06 -1.97858986E-06
  8.49598310E-02  5.93295249E-03  8.49721372E-02  5.97768109E-03  2.18658283E-02
  3.43410282E-03 -3.35923038E-02  6.61960734E-02  1.30782631E-02  3.79353768E-03
  3.72523360E-06  5.78370143E-02  4.65844238E-04  1.65356844E-03 -2.61254567E-05
 -1.68167947E-02 -7.27694763E-03 -1.63412868E-03 -1.40822158E-05  4.21762040E-04
  5.49256058E-05  6.24427335E-05 -1.11359002E-04  6.31731299E-07 -3.08765310E-06
  2.18291704E-02  3.45490762E-03  2.10891525E-02  1.48412476E-03  4.82046144E-02
 -9.55182298E-02 -1.45440869E-03 -7.54536304E-03  1.31819855E-05 -8.51161489E-02
 -2.85588028E-03  2.38151004E-03 -1.17082936E-04 -2.95032215E-02  4.97224459E-03
 -3.97976203E-03 -7.71874202E-05  3.31288020E-03  1.18221692E-03 -1.02939070E-03
  2.34890159E-03  1.55242592E-06  2.24224044E-06 -3.34153976E-02 -5.11752741E-03
 -3.34016539E-02 -4.97950592E-03  1.05657925E-02 -2.28268267E-02 -5.15339598E-02
  2.38733618E-02  1.02593333E-06 -7.71974778E-03 -1.34369346E-02  3.33898854E-03
  1.24754652E-04 -7.48361454E-03  1.51113133E-02  8.84480550E-04  9.66355867E-05
  1.18090444E-03 -1.26856131E-03  9.84295334E-04  3.95527542E-03  1.21868421E-06
  3.83436076E-07  4.32529392E-03  1.14118317E-03  4.31467113E-03  1.32070685E-03
  1.42166528E-01  2.12439935E-02 -1.98410326E-01  3.89838303E-01 -2.77928013E-02
 -7.10066281E-03  2.37022599E-05  4.00206499E-01 -1.07855888E-02  8.64437756E-05
 -1.11627869E-05  6.02199557E-02  1.50425160E-02  5.00077215E-03 -1.28557251E-05
 -7.94316900E-03  1.63320497E-03  2.92184484E-03 -4.69159217E-03  2.29875419E-06
 -1.38120899E-05  1.42278966E-01  2.13013382E-02  1.45039026E-01  2.20378278E-02
  1.20070391E-01 -2.40972807E-01 -1.02574032E-01  1.34776831E-01  3.25446524E-05
 -2.55041403E-01 -3.35716280E-02  4.59786564E-02  9.60651429E-06 -4.77158581E-02
  5.30211561E-03 -5.91128399E-04  6.24589044E-06  8.85623549E-03  9.57928825E-03
 -1.17394121E-02 -1.07373054E-03  2.99900508E-06  9.01373727E-06 -1.39836552E-01
 -5.21091990E-02 -1.39842940E-01 -5.21098813E-02 -1.25780859E-01  2.50861860E-01
 -8.26894277E-02  1.43067958E-01  2.49420876E-05  2.64097596E-01 -3.29301984E-02
  4.91729996E-02  2.62667049E-05  6.22306795E-02 -6.58930461E-03 -5.42513381E-03
 -7.17729971E-07 -1.41563051E-02 -7.61925640E-03  1.33286402E-02 -1.75871068E-03
 -7.46099436E-06 -4.83732850E-06  1.46867255E-01  5.18830636E-02  1.46851141E-01
  5.19093409E-02 -3.13328101E-02 -1.11141565E-02  3.15652005E-02 -6.34525236E-02
  3.20082105E-02  2.56005795E-02  3.01094207E-05 -6.84053567E-02  1.25483122E-02
  1.10774982E-02  9.43236492E-06 -1.68878004E-02 -1.88662139E-03 -2.74039714E-03
  3.11825414E-06  2.83882039E-03  2.94846213E-05 -1.88745535E-03  2.74878682E-03
  1.45385256E-05 -3.37171326E-05 -3.10120712E-02 -1.09565057E-02 -2.15134020E-02
 -6.14938264E-03 -1.25275744E-05  4.25656757E-05 -1.36515720E-05 -1.49718788E-04
  3.21246440E-01 -7.30809961E-05  5.49469325E-05 -9.75925122E-05  1.22955501E-01
 -1.03725437E-03  1.83570541E-04 -1.85390082E-04  1.29399074E-02 -1.40122940E-07
  6.41416750E-06 -2.11588465E-06  4.39006961E-07  2.64779752E-03 -4.93786619E-03
 -1.49321930E-01 -9.04087845E-02  1.49361096E-01  9.04345440E-02 -4.02876664E-06
  2.34061003E-06 -8.49401511E-05 -5.46761830E-05  3.30608421E-01  8.81759600E-05
  6.24630817E-06 -8.99560246E-05  1.24761645E-01  1.10041293E-03  1.65501231E-04
 -2.73645832E-04  1.59109254E-02  2.96603140E-07 -5.15554540E-07  5.14403931E-07
 -3.22631282E-06 -4.45896650E-04  7.99307617E-03  1.57995089E-01  9.76798756E-02
 -1.57976737E-01 -9.76724840E-02 -3.67785607E-02 -2.09703421E-02  4.97093878E-06
 -3.36618284E-06  6.44122937E-05 -9.98778346E-05  7.36059027E-02 -4.44142025E-05
 -1.26682975E-05  3.75964372E-05  3.55366571E-02 -6.09024502E-05 -2.94663775E-05
  2.60383986E-05  2.12021384E-03 -2.63713074E-05 -1.82726936E-04  2.15618801E-04
  8.49422155E-05  2.03531284E-03 -2.83987448E-03  3.78244461E-02  2.17193096E-02
 -1.07725375E-03 -7.30755408E-04  4.82907162E-03 -1.52204118E-02  2.36227541E-01
 -2.45151019E-01  3.74066715E-04  2.56417216E-02  7.89273148E-02 -7.76106114E-02
  1.98366444E-04  6.51756398E-02  9.96572789E-03 -1.03854010E-02  1.34064279E-04
 -4.92534137E-03 -1.22091905E-03  1.54782414E-02  2.79212067E-03  1.09938063E-05
 -3.00470499E-05  1.05669126E-01  7.91485618E-02  1.06150660E-01  7.93824542E-02
  1.48804335E-02 -3.42946468E-02 -1.90091524E-01  2.68036274E-01 -2.88453725E-05
 -1.67889866E-02 -6.75352929E-02  9.80383931E-02  7.18415991E-05 -4.59336548E-02
 -2.27194523E-02  3.45663433E-02 -5.28352934E-05 -2.48144855E-03 -1.35047143E-03
  1.41732157E-02  2.93213667E-03  1.51973663E-05 -1.80404607E-05  9.64550959E-02
  7.52378677E-02  9.65971217E-02  7.56322102E-02 -8.74423030E-02 -5.67390876E-02
  4.94896794E-03 -1.13539706E-02 -7.38372036E-02  2.49926414E-01 -1.01095331E-03
 -1.23752170E-02 -2.79759454E-02  1.11549608E-01 -3.98022494E-04  4.44370032E-03
  1.83340036E-04  1.43103003E-02 -6.94891342E-05  4.67378870E-03  7.71993757E-03
 -1.17024516E-02 -6.15230608E-03  3.19390431E-04 -7.68520887E-04 -8.23427985E-02
 -5.33160879E-02  1.51566220E-01  1.07339581E-01  1.74885204E-04 -3.73070504E-04
  2.65547220E-03 -2.93454919E-03 -1.11128651E-01 -6.15476453E-04  1.10304453E-03
 -1.17659849E-03 -4.82942367E-02 -2.86600549E-03  7.66367780E-04 -6.52419953E-04
 -7.23405156E-03 -3.35393451E-05 -1.49242686E-05  1.90329863E-04  4.71106264E-05
 -3.77089924E-03  3.97643509E-03  5.98123695E-02  4.18497191E-02 -5.74809732E-02
 -3.98917160E-02  1.15377693E-04 -3.14960118E-04 -2.40036265E-03  3.14867243E-03
 -1.94107373E-02  2.78413639E-04 -5.83309860E-04  7.50013751E-04 -9.89411157E-04
  3.24357478E-03  2.62144818E-04 -5.37451596E-04 -4.68812466E-03 -6.69809147E-05
 -2.08390631E-07  1.86076605E-04  6.35625695E-05 -4.56289977E-03  8.16584917E-04
 -4.63079324E-04  1.40247635E-03  2.90454523E-03  5.94164691E-04 -2.31716474E-01
 -1.62137021E-01  6.07664674E-05 -1.06028489E-04  1.86050503E-03 -3.77289160E-03
  4.47777486E-01 -2.37178938E-04  6.96649698E-04 -1.30460710E-03  1.96064187E-01
 -6.13757151E-05  1.45238597E-04 -2.47186516E-04  3.55931729E-02 -2.40044719E-04
 -1.25624902E-03  1.51191058E-03  6.77571233E-04 -3.98203395E-04 -2.36867135E-02
  2.40488043E-01  1.68675729E-01 -8.97814532E-03 -6.67515823E-03 -1.36576915E-02
  3.27375650E-02 -1.50841436E-01  1.89143415E-01 -1.02647558E-03  2.30251642E-02
 -5.08680170E-02  7.25851400E-02 -3.93749162E-04 -6.11211261E-03 -1.53112887E-02
  1.13382822E-02  5.52425548E-05  1.45778990E-03  9.56965368E-04 -1.04270832E-02
 -2.93832719E-03 -3.72461685E-05  3.05553149E-05 -6.70218886E-02 -5.48865530E-02
 -6.81308666E-02 -5.57284250E-02 -4.34642007E-03  1.36655700E-02  1.56471703E-01
 -1.93562769E-01 -4.26925909E-04 -1.81121795E-02  4.70030751E-02 -5.94459646E-02
  1.36686771E-05 -1.93776359E-02  1.83756788E-02 -1.60479621E-02 -1.66800111E-04