AA optimaliseren                                                        
Freq      RB3LYP                                                      6-31+G(d)           
Number of atoms                            I               10
Charge                                     I                0
Multiplicity                               I                1
Number of electrons                        I               38
Number of alpha electrons                  I               19
Number of beta electrons                   I               19
Number of basis functions                  I              105
Number of independant functions            I              105
Number of point charges in /Mol/           I                0
Number of translation vectors              I                0
Info1-9                                    I   N=           9
          45          44        1002           0           0         100
           6          18        -501
Num ILSW                                   I              100
ILSW                                       I   N=         100
           0           1           0           1           2           0
           0           0           0           0         402      200000
           0           0           0           0           0           0
           0      800000           0           0           1           0
           1           0           0           0     1000000           0
           0           0      100000           0          -1           0
           0           0           0           0           0           0
           0           0           0           1           0           0
           0           0           1      720000      810000           0
           0           0           0           0           0           0
           0           0           0           0           0           0
           0           0           0           0           0           0
           0           0           0           0           0           0
           0           0           0           0           0           0
           0           0           0           0           0           0
           0           0           0           0           0           0
           0           0           0           0
Number of contracted shells                I               35
Highest angular momentum                   I                2
Largest degree of contraction              I                6
Number of primitive shells                 I               80
Pure/Cartesian d shells                    I                1
Pure/Cartesian f shells                    I                0
Virial Ratio                               R      2.009769137427154E+00
SCF Energy                                 R     -2.473076420936660E+02
Total Energy                               R     -2.473076420936660E+02
RMS Force                                  R      3.158548128204983E-05
RMS Density                                R      5.673291689419176E-10
Atomic numbers                             I   N=          10
           6           6           1           1           1           6
           8           7           1           1
Nuclear charges                            R   N=          10
  6.00000000E+00  6.00000000E+00  1.00000000E+00  1.00000000E+00  1.00000000E+00
  6.00000000E+00  8.00000000E+00  7.00000000E+00  1.00000000E+00  1.00000000E+00
Current cartesian coordinates              R   N=          30
 -1.51797284E+00 -1.22263570E+00  1.50364930E-03 -3.75355654E+00 -4.85458558E-02
 -1.24328586E-03 -1.40687278E+00 -3.27844111E+00  4.28018866E-03 -5.51918758E+00
 -1.09535272E+00 -5.03655359E-04 -3.84376037E+00  2.00331324E+00 -3.65967251E-03
  9.01157653E-01  2.41250053E-01  3.99842435E-04  9.90184598E-01  2.55939237E+00
  1.08968225E-03  3.04584196E+00 -1.21068057E+00 -2.74119061E-03  3.00705855E+00
 -3.11786779E+00  4.49317326E-03  4.74262202E+00 -3.32437502E-01  1.89960702E-03
Int Atom Types                             I   N=          10
           0           0           0           0           0           0
           0           0           0           0
Force Field                                I                0
MM charges                                 R   N=          10
  0.00000000E+00  0.00000000E+00  0.00000000E+00  0.00000000E+00  0.00000000E+00
  0.00000000E+00  0.00000000E+00  0.00000000E+00  0.00000000E+00  0.00000000E+00
Integer atomic weights                     I   N=          10
          12          12           1           1           1          12
          16          14           1           1
Real atomic weights                        R   N=          10
  1.20000000E+01  1.20000000E+01  1.00782504E+00  1.00782504E+00  1.00782504E+00
  1.20000000E+01  1.59949146E+01  1.40030740E+01  1.00782504E+00  1.00782504E+00
Atom residue info                          I   N=          10
           0           0           0           0           0           0
           0           0           0           0
Atom fragment info                         I   N=          10
           0           0           0           0           0           0
           0           0           0           0
Atom residue num                           I   N=          10
           0           0           0           0           0           0
           0           0           0           0
Nuclear spins                              I   N=          10
           0           0           1           1           1           0
           0           2           1           1
Nuclear ZEff                               R   N=          10
 -3.60000000E+00 -3.60000000E+00 -1.00000000E+00 -1.00000000E+00 -1.00000000E+00
 -3.60000000E+00 -5.60000000E+00 -4.55000000E+00 -1.00000000E+00 -1.00000000E+00
Nuclear QMom                               R   N=          10
  0.00000000E+00  0.00000000E+00  0.00000000E+00  0.00000000E+00  0.00000000E+00
  0.00000000E+00  0.00000000E+00  2.04400000E+00  0.00000000E+00  0.00000000E+00
Nuclear GFac                               R   N=          10
  0.00000000E+00  0.00000000E+00  2.79284600E+00  2.79284600E+00  2.79284600E+00
  0.00000000E+00  0.00000000E+00  4.03761000E-01  2.79284600E+00  2.79284600E+00
MicOpt                                     I   N=          10
          -1          -1          -1          -1          -1          -1
          -1          -1          -1          -1
Constraint Structure                       R   N=          30
 -1.51797284E+00 -1.22263570E+00  1.50364930E-03 -3.75355654E+00 -4.85458558E-02
 -1.24328586E-03 -1.40687278E+00 -3.27844111E+00  4.28018866E-03 -5.51918758E+00
 -1.09535272E+00 -5.03655359E-04 -3.84376037E+00  2.00331324E+00 -3.65967251E-03
  9.01157653E-01  2.41250053E-01  3.99842435E-04  9.90184598E-01  2.55939237E+00
  1.08968225E-03  3.04584196E+00 -1.21068057E+00 -2.74119061E-03  3.00705855E+00
 -3.11786779E+00  4.49317326E-03  4.74262202E+00 -3.32437502E-01  1.89960702E-03
ONIOM Charges                              I   N=          16
           0           0           0           0           0           0
           0           0           0           0           0           0
           0           0           0           0
ONIOM Multiplicities                       I   N=          16
           1           0           0           0           0           0
           0           0           0           0           0           0
           0           0           0           0
Atom Layers                                I   N=          10
           0           0           0           0           0           0
           0           0           0           0
Atom Modifiers                             I   N=          10
           0           0           0           0           0           0
           0           0           0           0
Int Atom Modified Types                    I   N=          10
           0           0           0           0           0           0
           0           0           0           0
Link Atoms                                 I   N=          10
           0           0           0           0           0           0
           0           0           0           0
Atom Modified MM Charges                   R   N=          10
  0.00000000E+00  0.00000000E+00  0.00000000E+00  0.00000000E+00  0.00000000E+00
  0.00000000E+00  0.00000000E+00  0.00000000E+00  0.00000000E+00  0.00000000E+00
Link Distances                             R   N=          40
  0.00000000E+00  0.00000000E+00  0.00000000E+00  0.00000000E+00  0.00000000E+00
  0.00000000E+00  0.00000000E+00  0.00000000E+00  0.00000000E+00  0.00000000E+00
  0.00000000E+00  0.00000000E+00  0.00000000E+00  0.00000000E+00  0.00000000E+00
  0.00000000E+00  0.00000000E+00  0.00000000E+00  0.00000000E+00  0.00000000E+00
  0.00000000E+00  0.00000000E+00  0.00000000E+00  0.00000000E+00  0.00000000E+00
  0.00000000E+00  0.00000000E+00  0.00000000E+00  0.00000000E+00  0.00000000E+00
  0.00000000E+00  0.00000000E+00  0.00000000E+00  0.00000000E+00  0.00000000E+00
  0.00000000E+00  0.00000000E+00  0.00000000E+00  0.00000000E+00  0.00000000E+00
MxBond                                     I                3
NBond                                      I   N=          10
           3           3           1           1           1           3
           1           3           1           1
IBond                                      I   N=          30
           2           3           6           1           4           5
           1           0           0           2           0           0
           2           0           0           1           7           8
           6           0           0           6           9          10
           8           0           0           8           0           0
RBond                                      R   N=          30
  2.00000000E+00  1.00000000E+00  1.00000000E+00  2.00000000E+00  1.00000000E+00
  1.00000000E+00  1.00000000E+00  0.00000000E+00  0.00000000E+00  1.00000000E+00
  0.00000000E+00  0.00000000E+00  1.00000000E+00  0.00000000E+00  0.00000000E+00
  1.00000000E+00  2.00000000E+00  1.00000000E+00  2.00000000E+00  0.00000000E+00
  0.00000000E+00  1.00000000E+00  1.00000000E+00  1.00000000E+00  1.00000000E+00
  0.00000000E+00  0.00000000E+00  1.00000000E+00  0.00000000E+00  0.00000000E+00
Shell types                                I   N=          35
           0          -1          -1          -1           2           0
          -1          -1          -1           2           0           0
           0           0           0           0           0          -1
          -1          -1           2           0          -1          -1
          -1           2           0          -1          -1          -1
           2           0           0           0           0
Number of primitives per shell             I   N=          35
           6           3           1           1           1           6
           3           1           1           1           3           1
           3           1           3           1           6           3
           1           1           1           6           3           1
           1           1           6           3           1           1
           1           3           1           3           1
Shell to atom map                          I   N=          35
           1           1           1           1           1           2
           2           2           2           2           3           3
           4           4           5           5           6           6
           6           6           6           7           7           7
           7           7           8           8           8           8
           8           9           9          10          10
Primitive exponents                        R   N=          80
  3.04752488E+03  4.57369518E+02  1.03948685E+02  2.92101553E+01  9.28666296E+00
  3.16392696E+00  7.86827235E+00  1.88128854E+00  5.44249258E-01  1.68714478E-01
  4.38000000E-02  8.00000000E-01  3.04752488E+03  4.57369518E+02  1.03948685E+02
  2.92101553E+01  9.28666296E+00  3.16392696E+00  7.86827235E+00  1.88128854E+00
  5.44249258E-01  1.68714478E-01  4.38000000E-02  8.00000000E-01  1.87311370E+01
  2.82539436E+00  6.40121692E-01  1.61277759E-01  1.87311370E+01  2.82539436E+00
  6.40121692E-01  1.61277759E-01  1.87311370E+01  2.82539436E+00  6.40121692E-01
  1.61277759E-01  3.04752488E+03  4.57369518E+02  1.03948685E+02  2.92101553E+01
  9.28666296E+00  3.16392696E+00  7.86827235E+00  1.88128854E+00  5.44249258E-01
  1.68714478E-01  4.38000000E-02  8.00000000E-01  5.48467166E+03  8.25234946E+02
  1.88046958E+02  5.29645000E+01  1.68975704E+01  5.79963534E+00  1.55396162E+01
  3.59993359E+00  1.01376175E+00  2.70005823E-01  8.45000000E-02  8.00000000E-01
  4.17351146E+03  6.27457911E+02  1.42902093E+02  4.02343293E+01  1.28202129E+01
  4.39043701E+00  1.16263619E+01  2.71627981E+00  7.72218397E-01  2.12031498E-01
  6.39000000E-02  8.00000000E-01  1.87311370E+01  2.82539436E+00  6.40121692E-01
  1.61277759E-01  1.87311370E+01  2.82539436E+00  6.40121692E-01  1.61277759E-01
Contraction coefficients                   R   N=          80
  1.83473713E-03  1.40373228E-02  6.88426223E-02  2.32184443E-01  4.67941348E-01
  3.62311985E-01 -1.19332420E-01 -1.60854152E-01  1.14345644E+00  1.00000000E+00
  1.00000000E+00  1.00000000E+00  1.83473713E-03  1.40373228E-02  6.88426223E-02
  2.32184443E-01  4.67941348E-01  3.62311985E-01 -1.19332420E-01 -1.60854152E-01
  1.14345644E+00  1.00000000E+00  1.00000000E+00  1.00000000E+00  3.34946043E-02
  2.34726953E-01  8.13757326E-01  1.00000000E+00  3.34946043E-02  2.34726953E-01
  8.13757326E-01  1.00000000E+00  3.34946043E-02  2.34726953E-01  8.13757326E-01
  1.00000000E+00  1.83473713E-03  1.40373228E-02  6.88426223E-02  2.32184443E-01
  4.67941348E-01  3.62311985E-01 -1.19332420E-01 -1.60854152E-01  1.14345644E+00
  1.00000000E+00  1.00000000E+00  1.00000000E+00  1.83107443E-03  1.39501722E-02
  6.84450781E-02  2.32714336E-01  4.70192898E-01  3.58520853E-01 -1.10777550E-01
 -1.48026263E-01  1.13076702E+00  1.00000000E+00  1.00000000E+00  1.00000000E+00
  1.83477216E-03  1.39946270E-02  6.85865518E-02  2.32240873E-01  4.69069948E-01
  3.60455199E-01 -1.14961182E-01 -1.69117479E-01  1.14585195E+00  1.00000000E+00
  1.00000000E+00  1.00000000E+00  3.34946043E-02  2.34726953E-01  8.13757326E-01
  1.00000000E+00  3.34946043E-02  2.34726953E-01  8.13757326E-01  1.00000000E+00
P(S=P) Contraction coefficients            R   N=          80
  0.00000000E+00  0.00000000E+00  0.00000000E+00  0.00000000E+00  0.00000000E+00
  0.00000000E+00  6.89990666E-02  3.16423961E-01  7.44308291E-01  1.00000000E+00
  1.00000000E+00  0.00000000E+00  0.00000000E+00  0.00000000E+00  0.00000000E+00
  0.00000000E+00  0.00000000E+00  0.00000000E+00  6.89990666E-02  3.16423961E-01
  7.44308291E-01  1.00000000E+00  1.00000000E+00  0.00000000E+00  0.00000000E+00
  0.00000000E+00  0.00000000E+00  0.00000000E+00  0.00000000E+00  0.00000000E+00
  0.00000000E+00  0.00000000E+00  0.00000000E+00  0.00000000E+00  0.00000000E+00
  0.00000000E+00  0.00000000E+00  0.00000000E+00  0.00000000E+00  0.00000000E+00
  0.00000000E+00  0.00000000E+00  6.89990666E-02  3.16423961E-01  7.44308291E-01
  1.00000000E+00  1.00000000E+00  0.00000000E+00  0.00000000E+00  0.00000000E+00
  0.00000000E+00  0.00000000E+00  0.00000000E+00  0.00000000E+00  7.08742682E-02
  3.39752839E-01  7.27158577E-01  1.00000000E+00  1.00000000E+00  0.00000000E+00
  0.00000000E+00  0.00000000E+00  0.00000000E+00  0.00000000E+00  0.00000000E+00
  0.00000000E+00  6.75797439E-02  3.23907296E-01  7.40895140E-01  1.00000000E+00
  1.00000000E+00  0.00000000E+00  0.00000000E+00  0.00000000E+00  0.00000000E+00
  0.00000000E+00  0.00000000E+00  0.00000000E+00  0.00000000E+00  0.00000000E+00
Coordinates of each shell                  R   N=         105
 -1.51797284E+00 -1.22263570E+00  1.50364930E-03 -1.51797284E+00 -1.22263570E+00
  1.50364930E-03 -1.51797284E+00 -1.22263570E+00  1.50364930E-03 -1.51797284E+00
 -1.22263570E+00  1.50364930E-03 -1.51797284E+00 -1.22263570E+00  1.50364930E-03
 -3.75355654E+00 -4.85458558E-02 -1.24328586E-03 -3.75355654E+00 -4.85458558E-02
 -1.24328586E-03 -3.75355654E+00 -4.85458558E-02 -1.24328586E-03 -3.75355654E+00
 -4.85458558E-02 -1.24328586E-03 -3.75355654E+00 -4.85458558E-02 -1.24328586E-03
 -1.40687278E+00 -3.27844111E+00  4.28018866E-03 -1.40687278E+00 -3.27844111E+00
  4.28018866E-03 -5.51918758E+00 -1.09535272E+00 -5.03655359E-04 -5.51918758E+00
 -1.09535272E+00 -5.03655359E-04 -3.84376037E+00  2.00331324E+00 -3.65967251E-03
 -3.84376037E+00  2.00331324E+00 -3.65967251E-03  9.01157653E-01  2.41250053E-01
  3.99842435E-04  9.01157653E-01  2.41250053E-01  3.99842435E-04  9.01157653E-01
  2.41250053E-01  3.99842435E-04  9.01157653E-01  2.41250053E-01  3.99842435E-04
  9.01157653E-01  2.41250053E-01  3.99842435E-04  9.90184598E-01  2.55939237E+00
  1.08968225E-03  9.90184598E-01  2.55939237E+00  1.08968225E-03  9.90184598E-01
  2.55939237E+00  1.08968225E-03  9.90184598E-01  2.55939237E+00  1.08968225E-03
  9.90184598E-01  2.55939237E+00  1.08968225E-03  3.04584196E+00 -1.21068057E+00
 -2.74119061E-03  3.04584196E+00 -1.21068057E+00 -2.74119061E-03  3.04584196E+00
 -1.21068057E+00 -2.74119061E-03  3.04584196E+00 -1.21068057E+00 -2.74119061E-03
  3.04584196E+00 -1.21068057E+00 -2.74119061E-03  3.00705855E+00 -3.11786779E+00
  4.49317326E-03  3.00705855E+00 -3.11786779E+00  4.49317326E-03  4.74262202E+00
 -3.32437502E-01  1.89960702E-03  4.74262202E+00 -3.32437502E-01  1.89960702E-03
Alpha Orbital Energies                     R   N=         105
 -1.91251258E+01 -1.43745122E+01 -1.03033692E+01 -1.02140607E+01 -1.02111666E+01
 -1.04130223E+00 -9.16672217E-01 -7.92843575E-01 -6.56905591E-01 -5.79151309E-01
 -5.40621745E-01 -5.12556290E-01 -4.35363512E-01 -4.30698875E-01 -4.20876520E-01
 -3.84898674E-01 -2.89786361E-01 -2.79533714E-01 -2.66119286E-01 -5.16515011E-02
 -8.71069237E-03  1.73834517E-02  3.30390258E-02  5.80027451E-02  6.27186951E-02
  6.81338628E-02  6.84293754E-02  8.60201509E-02  9.58142146E-02  9.80862854E-02
  1.13207168E-01  1.30172251E-01  1.44246215E-01  1.62913559E-01  1.69874524E-01
  1.76606381E-01  1.91619517E-01  2.00422473E-01  2.30519017E-01  2.48646779E-01
  2.58175674E-01  2.77139402E-01  2.95519402E-01  3.03366258E-01  3.07357860E-01
  3.38946142E-01  3.55507950E-01  4.00432420E-01  4.18903497E-01  5.16298429E-01
  6.22718137E-01  6.62230603E-01  7.04784761E-01  7.05304828E-01  7.33115833E-01
  7.61598784E-01  7.98501972E-01  8.66601563E-01  8.98433632E-01  9.09057123E-01
  9.31206182E-01  9.56274290E-01  9.99094079E-01  1.00787563E+00  1.05517432E+00
  1.09892731E+00  1.11546378E+00  1.17185846E+00  1.25495535E+00  1.26994439E+00
  1.30764344E+00  1.32349316E+00  1.34035372E+00  1.38075708E+00  1.39802324E+00
  1.44525265E+00  1.48365133E+00  1.61539128E+00  1.68038718E+00  1.70549305E+00
  1.82109932E+00  1.82405830E+00  1.89299824E+00  1.97687873E+00  2.00885791E+00
  2.02304199E+00  2.05905648E+00  2.17313555E+00  2.20676712E+00  2.28543117E+00
  2.31244759E+00  2.41326390E+00  2.44815323E+00  2.50515646E+00  2.65270197E+00
  2.66948123E+00  2.71881159E+00  2.96936681E+00  3.11580224E+00  3.20798870E+00
  3.92527400E+00  4.19864063E+00  4.21863725E+00  4.40131655E+00  4.57960885E+00
Alpha MO coefficients                      R   N=       11025
 -3.27970874E-06  4.37172287E-05  1.96868609E-05 -1.89507771E-05 -5.20130835E-08
 -1.72672869E-04 -6.12426550E-04  2.30398508E-04  2.23267512E-07 -2.07816640E-03
  2.98472706E-03 -1.01217702E-03 -6.33472333E-07  2.31286441E-05 -9.51566274E-05
 -7.82532233E-06 -4.22076741E-05  1.96546055E-08  7.24410524E-08 -1.87586128E-06
 -2.70200609E-05 -1.22827269E-05  3.10006086E-05 -5.33879253E-08 -4.05652297E-04
  1.37815456E-05  9.64062289E-05 -2.44639635E-07  4.09964426E-03  5.00333820E-04
 -9.13231321E-04  2.62112310E-06  1.86472331E-05 -1.61531053E-05  8.31881243E-06
  3.83405593E-05 -5.62788737E-08  1.09280321E-07  6.19331812E-05  3.74896132E-05
  6.96169819E-06  1.08815299E-04  1.47899351E-05  1.93452152E-04 -1.43917568E-05
  4.09366112E-04  2.32355887E-05  2.76581572E-04  4.27632654E-08 -6.72440431E-05
 -9.87163246E-05 -1.53417351E-03 -4.57881949E-07 -8.89750641E-04 -1.21630793E-03
  3.58274425E-03  7.97845565E-07 -1.16740663E-04 -4.80622995E-04 -1.71914615E-04
 -6.75674175E-06 -8.52125337E-08 -9.62422357E-08  9.92566027E-01  2.51858534E-02
 -1.93676186E-05 -1.29115147E-03 -4.79617202E-07  1.59497885E-02 -7.08845783E-05
  2.44257874E-04  9.38391162E-08 -6.71469809E-03  2.36148331E-04 -1.93685630E-04
  9.20819970E-08 -8.64296111E-03 -8.54184922E-03 -8.65150754E-03  8.83588440E-06
  1.09649858E-09  1.70274381E-08  1.53412070E-05  1.09198336E-04 -6.34595866E-06
 -4.12718259E-05 -1.45334115E-08 -6.19806674E-04  2.49339478E-04  2.26238369E-04
 -3.84303924E-07  2.30629620E-03  1.45613846E-05  2.09767576E-05  1.41576027E-06
  7.83167049E-05 -9.80233000E-05  3.49213047E-05  4.56254787E-05  2.90280142E-08
  1.91907760E-07  1.16848705E-04 -7.42200679E-05  5.54708578E-06 -2.30783540E-04
 -7.63276342E-06  3.29692113E-05 -1.57267081E-05 -1.87540214E-05  4.47620871E-08
  2.06969315E-04 -1.30953085E-04  3.04750844E-04 -4.62991850E-07 -5.27957491E-04
  1.05127558E-03 -4.98553001E-05  1.48224217E-07 -1.10409197E-04 -1.00134746E-05
 -2.09354968E-05  1.35891794E-05  7.32371893E-08 -4.17569707E-08  9.85125371E-07
  2.57006363E-06 -4.47420610E-06 -9.97187791E-06  8.32105774E-08 -2.60180678E-04
 -4.09146623E-05  8.45370210E-06 -2.01002983E-07  1.99378640E-03  3.60787762E-04
 -2.33430954E-04  1.68300721E-06  1.21819822E-05  1.39529490E-05 -4.94858979E-06
 -2.10444553E-05  5.48279531E-08 -6.04299011E-08  1.67851022E-05  1.92747450E-04
  6.80248311E-06  2.48937850E-05  4.44270966E-06  9.96666706E-06  1.74099503E-05
  1.26910040E-04  2.63284237E-04 -1.45359396E-04 -3.36553247E-07 -8.51242788E-05
  3.02094735E-04 -2.99194163E-04  7.84003127E-07 -5.21691488E-04  6.25983240E-04
 -3.74889286E-05 -3.93189250E-06  1.05712042E-04  4.55297757E-05 -5.64129613E-05
 -6.49469506E-05 -2.35101877E-07  1.80886106E-07 -3.31891849E-06  2.06768403E-06
 -8.55771571E-07  1.83786969E-05  8.29336405E-08  1.54585781E-04 -1.31994655E-04
  3.91310513E-06 -4.94155994E-07  3.76282117E-04  1.45709896E-05 -1.45400871E-04
  7.54535465E-07 -2.83617822E-05 -6.24920793E-05 -3.36984117E-06  6.86689500E-05
  9.09186777E-08 -1.03530845E-08  9.92579113E-01  3.48523665E-02  6.36369670E-05
 -8.73185115E-05  7.84138006E-06  4.52817619E-03  1.60199219E-04 -1.05449371E-04
 -5.02257309E-06 -1.93961004E-03  3.87406879E-04 -1.83383111E-04  4.11541714E-06
 -8.51607511E-03 -8.47328475E-03 -8.49911707E-03  5.84466771E-05  2.50181023E-07
 -2.71659803E-07  2.67634388E-04 -3.87896606E-04  2.87363955E-04 -4.31947091E-04
  1.42541997E-03 -2.22813194E-05 -1.37128081E-04 -8.04869286E-05 -4.44460717E-08
  4.51891961E-03  2.71174376E-03  6.90731688E-04 -4.82582217E-07  2.29208217E-02
 -1.81569682E-03  2.77865350E-03  1.95206879E-06 -3.08303403E-04 -1.54663054E-04
 -1.00576496E-04 -1.65522886E-04  2.05211095E-07 -2.12577149E-07  1.07879871E-05
 -4.66783569E-05  2.75389088E-05  1.83849442E-05  2.63325185E-07  2.18050161E-04
 -4.56713019E-04 -6.27475296E-04 -5.78925356E-08 -1.35523996E-02 -2.99883556E-03
  1.29530423E-03 -6.71929943E-06  3.96626620E-05  7.98263779E-05 -3.06842268E-05
 -4.35831443E-06 -1.54984667E-08 -2.40680508E-07 -9.71068072E-05 -7.68226147E-04
 -1.01450228E-04 -1.62616451E-04  1.46939208E-05  1.29175596E-04  9.93143957E-01
  4.94969440E-02  5.39161190E-04  2.73768139E-04 -1.01936382E-06 -1.69108029E-02
  1.12423501E-03  4.00018899E-03 -6.45233145E-07 -1.47950337E-02  2.11789624E-03
  4.46535762E-03 -6.90044494E-06 -8.62944261E-03 -7.98481726E-03 -9.06161821E-03
 -1.15227167E-04 -7.14355769E-07  4.72101417E-07 -4.77906891E-05  6.67868245E-04
 -1.11485736E-05 -2.20370795E-05 -1.68942565E-08 -3.82704246E-03  1.61934858E-05
  1.76883689E-03  9.61768254E-07  4.16969257E-03 -5.89638355E-04 -3.19727995E-03
 -5.63039337E-07  4.60844021E-04 -3.41328860E-05  5.51550766E-04  1.90395833E-05
  4.23196726E-08 -3.24968862E-07 -1.21875528E-04  2.40813090E-05  2.37092895E-04
 -4.71744118E-05 -7.72740506E-07  2.20983080E-03 -1.07685485E-03 -9.91221707E-04
  4.35096789E-06  8.48979110E-03 -2.48894924E-03 -1.17819777E-03  1.00493634E-05
 -3.68934648E-04 -1.47671018E-04  8.72236418E-05  3.30854091E-04  1.23077517E-07
 -1.59692071E-06 -1.22665206E-05 -2.37321751E-03  1.60120121E-04 -6.17865885E-05
  9.81233228E-01  4.94679203E-02  1.38737329E-04  1.60033757E-04 -3.29539529E-07
 -1.72796645E-02 -7.27666563E-04 -2.43290853E-03  3.06660823E-06  4.79730911E-02
 -2.19880580E-03  8.82548666E-03 -1.04348428E-05 -8.86550890E-03 -9.06030688E-03
 -9.26989588E-03 -1.45416923E-04  3.56726826E-07 -4.57778897E-07  1.51298434E-01
  7.27138720E-03 -2.39521336E-04  1.15369620E-04 -2.65957660E-07  1.93471943E-03
  1.89602218E-03 -7.61302775E-05  9.46600283E-07 -2.60618391E-02 -5.50727331E-03
  2.19059916E-03 -7.63912365E-06 -1.55777067E-03 -1.53746963E-03 -1.43376456E-03
  9.97494536E-05 -2.28087987E-07  2.59932957E-07 -1.99437352E-04  9.57879620E-04
 -7.50397261E-05  7.26095179E-04 -1.33091954E-04 -1.34095777E-04 -1.58312383E-03
 -1.25469797E-04  1.62644365E-04  6.73436527E-05 -1.57379224E-07  3.02868442E-03
 -3.34979070E-03 -6.55983752E-04  1.77152881E-06 -2.36650548E-02  5.32337498E-03
  3.17853452E-03 -2.54509218E-06 -3.13983305E-04 -2.62197779E-04 -2.48260437E-05
 -2.13571021E-04  2.62447030E-07  1.85490750E-07  9.25633913E-06 -1.04122701E-06
 -2.67428909E-05  3.48912814E-07 -9.22953565E-08 -3.45954192E-04  5.31054292E-04
 -1.43798655E-04 -1.09136116E-09  8.67848786E-04 -3.35988526E-05 -8.21638990E-05
 -8.12083111E-07  6.32294171E-05  1.42997510E-04 -7.07467969E-05 -7.11734747E-05
 -1.44659396E-07  1.30305299E-07 -3.63741644E-06 -1.17579045E-04  2.13762237E-05
 -3.36514326E-05  5.52798663E-08  5.79914871E-04 -3.22233768E-04  6.44051367E-04
  7.85457905E-07  4.03390318E-03 -1.13832133E-03 -6.95430956E-04  4.15381386E-06
  1.07207417E-04  6.83090011E-05 -7.89924429E-05 -9.88920409E-06 -1.71461564E-07
  2.36487371E-07  6.99506781E-05 -4.21473143E-04 -9.26405218E-05  1.72194110E-04
 -1.51656803E-01 -7.93277459E-03  3.39027784E-04 -2.37221395E-04  5.10042454E-07
  6.61092741E-03 -2.18223635E-03  1.26691589E-03 -3.04980453E-06  2.57792865E-03
  4.54072272E-03  1.88981177E-03  2.48286185E-06  1.17941989E-03  1.27787086E-03
  1.44042116E-03  6.19282498E-05 -2.63398897E-07  2.18563231E-07  9.81212440E-01
  4.92117298E-02  1.87211922E-04 -1.72841922E-04  3.59048477E-07 -1.57693954E-02
 -1.82866466E-03  8.76465628E-04 -2.49765253E-06  1.16704750E-02  3.57947315E-03
 -1.67829607E-03  2.47718072E-06 -8.99859320E-03 -9.12360039E-03 -9.49365853E-03
 -1.02864579E-04  3.74395644E-07 -6.07430796E-07  1.09401268E-05 -2.80575911E-04
 -2.31621848E-04  1.81348212E-03 -1.29374564E-04  1.61331707E-03  2.40051983E-04
 -2.35620784E-05 -2.67702592E-06 -2.62346142E-05  7.18728512E-08 -1.30790129E-03
 -3.76343397E-04  4.15641767E-04  7.93078737E-07 -1.44977961E-02  4.41572369E-03
  1.39938081E-03 -1.62598780E-06  1.17885160E-04  6.44919774E-05 -6.03991227E-06
  6.91816542E-05  7.34588240E-08 -2.28435059E-07  1.10161133E-05  6.24388570E-05
  1.12659944E-05  7.63833669E-06  5.44887121E-08 -3.78857512E-04  9.15590157E-05
  1.40178395E-05 -1.51189201E-07  1.39457264E-03  7.56780826E-05 -4.29210039E-04
 -3.51363976E-07  5.11672052E-06  2.58613549E-05  2.41338836E-05 -7.47303940E-06
  3.44974836E-08  2.36930743E-08 -3.93210334E-05 -1.37601081E-04  1.92644075E-05
  6.11218171E-06 -1.86985991E-07  1.15864317E-03 -4.73107391E-04  8.46044253E-05
  1.26952949E-06  5.01083825E-04 -6.54982150E-04 -5.02654759E-04  3.88988628E-07
 -5.11055393E-05 -8.64390496E-05 -1.00750694E-04 -1.67090706E-05 -2.15992082E-07
 -2.54384522E-07 -3.32326654E-05 -2.55680012E-04 -3.50060146E-06  1.31414280E-04
 -2.33419930E-02  4.28352680E-02  2.30912067E-02  2.07133287E-02 -1.19508382E-05
  3.41344639E-03 -2.22060218E-02  1.34878259E-02 -1.15507393E-05 -1.53270922E-01
  6.01982589E-02 -3.01660715E-02 -3.81610312E-05  3.81547687E-03  2.44495553E-03
 -2.81059552E-03  4.95926880E-03 -5.96457326E-07 -4.26681416E-06 -7.75734934E-03
  1.44028010E-02  1.01413388E-02  2.24133643E-05  6.56263176E-06 -8.09642183E-03
 -3.64977651E-03  3.28858471E-03 -7.77298973E-06  1.39086637E-01  2.23575866E-02
 -2.08601785E-02  8.89767785E-05  1.37979427E-03 -2.57710417E-04 -9.33445815E-04
  1.90541985E-04  1.64658678E-06 -4.04672662E-07  7.84452237E-03  1.07318051E-02
  1.71018276E-03  5.99049072E-04  4.70387520E-03  2.13664614E-03 -1.31884828E-01
  2.59000187E-01  3.39362147E-02  1.41447611E-01  1.01536269E-05  7.27294471E-02
 -2.19858791E-02 -6.77371464E-02  1.10874520E-05  3.76542152E-02 -2.95081097E-02
  1.26402971E-02  3.49916605E-05 -1.51919073E-02  1.76430494E-02 -2.23739303E-02
 -7.45117365E-04 -5.08942083E-06  1.36082895E-05 -1.76975025E-01  3.76551298E-01
 -1.96294016E-03 -1.52933493E-01 -5.02792837E-05  3.98426623E-01  1.18873779E-03
 -6.69981202E-02 -2.85773004E-05 -1.01152999E-02  5.48895422E-03 -4.42187256E-03
  9.01190947E-07 -1.21783012E-02  9.70055152E-03 -1.01848321E-02 -1.18098010E-04
  2.93095688E-06  8.63489569E-06 -6.34178031E-02  1.30794791E-01 -3.16397278E-02
  3.32160387E-02  2.00247145E-04  1.15523560E-01  3.39742238E-05  3.08701411E-02
  7.96451010E-05 -2.08384112E-02  2.56580266E-02  8.91452902E-03 -2.10507443E-05
  5.01296869E-03  6.02756833E-03 -6.53152995E-03 -4.85200841E-03 -8.89119339E-07
  1.07871154E-05  2.78351522E-02  1.36124792E-02  3.09470685E-02 -1.69399190E-02
 -1.77982465E-02  3.34817084E-02  2.21179495E-02 -6.10996490E-03 -1.30970041E-05
  2.35081265E-02  4.17972153E-02 -2.30218237E-02  2.28431591E-05 -6.53734895E-02
  5.68854546E-02 -1.12204988E-02  5.04477759E-05  3.40774644E-03 -2.03574576E-03