AA met 1 water molecule op C2 positie                                   
Freq      RB3LYP                                                      6-31+G(d)           
Number of atoms                            I               13
Charge                                     I                0
Multiplicity                               I                1
Number of electrons                        I               48
Number of alpha electrons                  I               24
Number of beta electrons                   I               24
Number of basis functions                  I              128
Number of independant functions            I              128
Number of point charges in /Mol/           I                0
Number of translation vectors              I                0
Info1-9                                    I   N=           9
          57          56        1002           0           0         100
           6          18        -501
Num ILSW                                   I              100
ILSW                                       I   N=         100
           0           1           0           1           2           0
           0           0           0           0         402      200000
           0           0           0           0           0           0
           0      800000           0           0           1           0
           1           0           0           0     1000000           0
           0           0      100000           0          -1           0
           0           0           0           0           0           0
           0           0           0           1           0           0
           0           0           1      720000      810000           0
           0           0           0           0           0           0
           0           0           0           0           0           0
           0           0           0           0           0           0
           0           0           0           0           0           0
           0           0           0           0           0           0
           0           0           0           0           0           0
           0           0           0           0           0           0
           0           0           0           0
Number of contracted shells                I               44
Highest angular momentum                   I                2
Largest degree of contraction              I                6
Number of primitive shells                 I              100
Pure/Cartesian d shells                    I                1
Pure/Cartesian f shells                    I                0
Virial Ratio                               R      2.009616105043410E+00
SCF Energy                                 R     -3.237468110975499E+02
Total Energy                               R     -3.237468110975499E+02
RMS Force                                  R      1.833288271116614E-05
RMS Density                                R      2.859226409140684E-09
Atomic numbers                             I   N=          13
           6           6           6           7           8           8
           1           1           1           1           1           1
           1
Nuclear charges                            R   N=          13
  6.00000000E+00  6.00000000E+00  6.00000000E+00  7.00000000E+00  8.00000000E+00
  8.00000000E+00  1.00000000E+00  1.00000000E+00  1.00000000E+00  1.00000000E+00
  1.00000000E+00  1.00000000E+00  1.00000000E+00
Current cartesian coordinates              R   N=          39
  4.93919640E+00 -1.11824954E+00 -1.09753719E-02  3.29087965E+00  7.94895543E-01
  7.49874909E-03  5.08215055E-01  3.34652071E-01  1.40887562E-02 -9.66211996E-01
  2.43670656E+00  2.52860331E-02 -4.01919324E-01 -1.82486690E+00  1.43155248E-02
 -5.49305718E+00 -6.06817427E-01 -1.59511885E-01  3.93906812E+00  2.74842415E+00
  1.75738363E-02  6.96546039E+00 -7.90893441E-01 -1.62563877E-02  4.27275679E+00
 -3.06052297E+00 -2.20975372E-02 -2.20187177E-01  4.19173621E+00 -1.31713625E-02
 -2.88141015E+00  2.22080013E+00  2.28281825E-02 -3.92385486E+00 -1.60730053E+00
 -9.19495550E-02 -6.65828377E+00 -1.37350328E+00  1.02396867E+00
Int Atom Types                             I   N=          13
           0           0           0           0           0           0
           0           0           0           0           0           0
           0
Force Field                                I                0
MM charges                                 R   N=          13
  0.00000000E+00  0.00000000E+00  0.00000000E+00  0.00000000E+00  0.00000000E+00
  0.00000000E+00  0.00000000E+00  0.00000000E+00  0.00000000E+00  0.00000000E+00
  0.00000000E+00  0.00000000E+00  0.00000000E+00
Integer atomic weights                     I   N=          13
          12          12          12          14          16          16
           1           1           1           1           1           1
           1
Real atomic weights                        R   N=          13
  1.20000000E+01  1.20000000E+01  1.20000000E+01  1.40030740E+01  1.59949146E+01
  1.59949146E+01  1.00782504E+00  1.00782504E+00  1.00782504E+00  1.00782504E+00
  1.00782504E+00  1.00782504E+00  1.00782504E+00
Atom residue info                          I   N=          13
           0           0           0           0           0           0
           0           0           0           0           0           0
           0
Atom fragment info                         I   N=          13
           0           0           0           0           0           0
           0           0           0           0           0           0
           0
Atom residue num                           I   N=          13
           0           0           0           0           0           0
           0           0           0           0           0           0
           0
Nuclear spins                              I   N=          13
           0           0           0           2           0           0
           1           1           1           1           1           1
           1
Nuclear ZEff                               R   N=          13
 -3.60000000E+00 -3.60000000E+00 -3.60000000E+00 -4.55000000E+00 -5.60000000E+00
 -5.60000000E+00 -1.00000000E+00 -1.00000000E+00 -1.00000000E+00 -1.00000000E+00
 -1.00000000E+00 -1.00000000E+00 -1.00000000E+00
Nuclear QMom                               R   N=          13
  0.00000000E+00  0.00000000E+00  0.00000000E+00  2.04400000E+00  0.00000000E+00
  0.00000000E+00  0.00000000E+00  0.00000000E+00  0.00000000E+00  0.00000000E+00
  0.00000000E+00  0.00000000E+00  0.00000000E+00
Nuclear GFac                               R   N=          13
  0.00000000E+00  0.00000000E+00  0.00000000E+00  4.03761000E-01  0.00000000E+00
  0.00000000E+00  2.79284600E+00  2.79284600E+00  2.79284600E+00  2.79284600E+00
  2.79284600E+00  2.79284600E+00  2.79284600E+00
MicOpt                                     I   N=          13
          -1          -1          -1          -1          -1          -1
          -1          -1          -1          -1          -1          -1
          -1
Constraint Structure                       R   N=          39
  4.93919640E+00 -1.11824954E+00 -1.09753719E-02  3.29087965E+00  7.94895543E-01
  7.49874909E-03  5.08215055E-01  3.34652071E-01  1.40887562E-02 -9.66211996E-01
  2.43670656E+00  2.52860331E-02 -4.01919324E-01 -1.82486690E+00  1.43155248E-02
 -5.49305718E+00 -6.06817427E-01 -1.59511885E-01  3.93906812E+00  2.74842415E+00
  1.75738363E-02  6.96546039E+00 -7.90893441E-01 -1.62563877E-02  4.27275679E+00
 -3.06052297E+00 -2.20975372E-02 -2.20187177E-01  4.19173621E+00 -1.31713625E-02
 -2.88141015E+00  2.22080013E+00  2.28281825E-02 -3.92385486E+00 -1.60730053E+00
 -9.19495550E-02 -6.65828377E+00 -1.37350328E+00  1.02396867E+00
ONIOM Charges                              I   N=          16
           0           0           0           0           0           0
           0           0           0           0           0           0
           0           0           0           0
ONIOM Multiplicities                       I   N=          16
           1           0           0           0           0           0
           0           0           0           0           0           0
           0           0           0           0
Atom Layers                                I   N=          13
           0           0           0           0           0           0
           0           0           0           0           0           0
           0
Atom Modifiers                             I   N=          13
           0           0           0           0           0           0
           0           0           0           0           0           0
           0
Int Atom Modified Types                    I   N=          13
           0           0           0           0           0           0
           0           0           0           0           0           0
           0
Link Atoms                                 I   N=          13
           0           0           0           0           0           0
           0           0           0           0           0           0
           0
Atom Modified MM Charges                   R   N=          13
  0.00000000E+00  0.00000000E+00  0.00000000E+00  0.00000000E+00  0.00000000E+00
  0.00000000E+00  0.00000000E+00  0.00000000E+00  0.00000000E+00  0.00000000E+00
  0.00000000E+00  0.00000000E+00  0.00000000E+00
Link Distances                             R   N=          52
  0.00000000E+00  0.00000000E+00  0.00000000E+00  0.00000000E+00  0.00000000E+00
  0.00000000E+00  0.00000000E+00  0.00000000E+00  0.00000000E+00  0.00000000E+00
  0.00000000E+00  0.00000000E+00  0.00000000E+00  0.00000000E+00  0.00000000E+00
  0.00000000E+00  0.00000000E+00  0.00000000E+00  0.00000000E+00  0.00000000E+00
  0.00000000E+00  0.00000000E+00  0.00000000E+00  0.00000000E+00  0.00000000E+00
  0.00000000E+00  0.00000000E+00  0.00000000E+00  0.00000000E+00  0.00000000E+00
  0.00000000E+00  0.00000000E+00  0.00000000E+00  0.00000000E+00  0.00000000E+00
  0.00000000E+00  0.00000000E+00  0.00000000E+00  0.00000000E+00  0.00000000E+00
  0.00000000E+00  0.00000000E+00  0.00000000E+00  0.00000000E+00  0.00000000E+00
  0.00000000E+00  0.00000000E+00  0.00000000E+00  0.00000000E+00  0.00000000E+00
  0.00000000E+00  0.00000000E+00
MxBond                                     I                3
NBond                                      I   N=          13
           3           3           3           3           1           2
           1           1           1           1           1           1
           1
IBond                                      I   N=          39
           2           8           9           1           3           7
           2           4           5           3          10          11
           3           0           0          12          13           0
           2           0           0           1           0           0
           1           0           0           4           0           0
           4           0           0           6           0           0
           6           0           0
RBond                                      R   N=          39
  2.00000000E+00  1.00000000E+00  1.00000000E+00  2.00000000E+00  1.00000000E+00
  1.00000000E+00  1.00000000E+00  1.41000000E+00  2.00000000E+00  1.41000000E+00
  1.00000000E+00  1.00000000E+00  2.00000000E+00  0.00000000E+00  0.00000000E+00
  1.00000000E+00  1.00000000E+00  0.00000000E+00  1.00000000E+00  0.00000000E+00
  0.00000000E+00  1.00000000E+00  0.00000000E+00  0.00000000E+00  1.00000000E+00
  0.00000000E+00  0.00000000E+00  1.00000000E+00  0.00000000E+00  0.00000000E+00
  1.00000000E+00  0.00000000E+00  0.00000000E+00  1.00000000E+00  0.00000000E+00
  0.00000000E+00  1.00000000E+00  0.00000000E+00  0.00000000E+00
Shell types                                I   N=          44
           0          -1          -1          -1           2           0
          -1          -1          -1           2           0          -1
          -1          -1           2           0          -1          -1
          -1           2           0          -1          -1          -1
           2           0          -1          -1          -1           2
           0           0           0           0           0           0
           0           0           0           0           0           0
           0           0
Number of primitives per shell             I   N=          44
           6           3           1           1           1           6
           3           1           1           1           6           3
           1           1           1           6           3           1
           1           1           6           3           1           1
           1           6           3           1           1           1
           3           1           3           1           3           1
           3           1           3           1           3           1
           3           1
Shell to atom map                          I   N=          44
           1           1           1           1           1           2
           2           2           2           2           3           3
           3           3           3           4           4           4
           4           4           5           5           5           5
           5           6           6           6           6           6
           7           7           8           8           9           9
          10          10          11          11          12          12
          13          13
Primitive exponents                        R   N=         100
  3.04752488E+03  4.57369518E+02  1.03948685E+02  2.92101553E+01  9.28666296E+00
  3.16392696E+00  7.86827235E+00  1.88128854E+00  5.44249258E-01  1.68714478E-01
  4.38000000E-02  8.00000000E-01  3.04752488E+03  4.57369518E+02  1.03948685E+02
  2.92101553E+01  9.28666296E+00  3.16392696E+00  7.86827235E+00  1.88128854E+00
  5.44249258E-01  1.68714478E-01  4.38000000E-02  8.00000000E-01  3.04752488E+03
  4.57369518E+02  1.03948685E+02  2.92101553E+01  9.28666296E+00  3.16392696E+00
  7.86827235E+00  1.88128854E+00  5.44249258E-01  1.68714478E-01  4.38000000E-02
  8.00000000E-01  4.17351146E+03  6.27457911E+02  1.42902093E+02  4.02343293E+01
  1.28202129E+01  4.39043701E+00  1.16263619E+01  2.71627981E+00  7.72218397E-01
  2.12031498E-01  6.39000000E-02  8.00000000E-01  5.48467166E+03  8.25234946E+02
  1.88046958E+02  5.29645000E+01  1.68975704E+01  5.79963534E+00  1.55396162E+01
  3.59993359E+00  1.01376175E+00  2.70005823E-01  8.45000000E-02  8.00000000E-01
  5.48467166E+03  8.25234946E+02  1.88046958E+02  5.29645000E+01  1.68975704E+01
  5.79963534E+00  1.55396162E+01  3.59993359E+00  1.01376175E+00  2.70005823E-01
  8.45000000E-02  8.00000000E-01  1.87311370E+01  2.82539436E+00  6.40121692E-01
  1.61277759E-01  1.87311370E+01  2.82539436E+00  6.40121692E-01  1.61277759E-01
  1.87311370E+01  2.82539436E+00  6.40121692E-01  1.61277759E-01  1.87311370E+01
  2.82539436E+00  6.40121692E-01  1.61277759E-01  1.87311370E+01  2.82539436E+00
  6.40121692E-01  1.61277759E-01  1.87311370E+01  2.82539436E+00  6.40121692E-01
  1.61277759E-01  1.87311370E+01  2.82539436E+00  6.40121692E-01  1.61277759E-01
Contraction coefficients                   R   N=         100
  1.83473713E-03  1.40373228E-02  6.88426223E-02  2.32184443E-01  4.67941348E-01
  3.62311985E-01 -1.19332420E-01 -1.60854152E-01  1.14345644E+00  1.00000000E+00
  1.00000000E+00  1.00000000E+00  1.83473713E-03  1.40373228E-02  6.88426223E-02
  2.32184443E-01  4.67941348E-01  3.62311985E-01 -1.19332420E-01 -1.60854152E-01
  1.14345644E+00  1.00000000E+00  1.00000000E+00  1.00000000E+00  1.83473713E-03
  1.40373228E-02  6.88426223E-02  2.32184443E-01  4.67941348E-01  3.62311985E-01
 -1.19332420E-01 -1.60854152E-01  1.14345644E+00  1.00000000E+00  1.00000000E+00
  1.00000000E+00  1.83477216E-03  1.39946270E-02  6.85865518E-02  2.32240873E-01
  4.69069948E-01  3.60455199E-01 -1.14961182E-01 -1.69117479E-01  1.14585195E+00
  1.00000000E+00  1.00000000E+00  1.00000000E+00  1.83107443E-03  1.39501722E-02
  6.84450781E-02  2.32714336E-01  4.70192898E-01  3.58520853E-01 -1.10777550E-01
 -1.48026263E-01  1.13076702E+00  1.00000000E+00  1.00000000E+00  1.00000000E+00
  1.83107443E-03  1.39501722E-02  6.84450781E-02  2.32714336E-01  4.70192898E-01
  3.58520853E-01 -1.10777550E-01 -1.48026263E-01  1.13076702E+00  1.00000000E+00
  1.00000000E+00  1.00000000E+00  3.34946043E-02  2.34726953E-01  8.13757326E-01
  1.00000000E+00  3.34946043E-02  2.34726953E-01  8.13757326E-01  1.00000000E+00
  3.34946043E-02  2.34726953E-01  8.13757326E-01  1.00000000E+00  3.34946043E-02
  2.34726953E-01  8.13757326E-01  1.00000000E+00  3.34946043E-02  2.34726953E-01
  8.13757326E-01  1.00000000E+00  3.34946043E-02  2.34726953E-01  8.13757326E-01
  1.00000000E+00  3.34946043E-02  2.34726953E-01  8.13757326E-01  1.00000000E+00
P(S=P) Contraction coefficients            R   N=         100
  0.00000000E+00  0.00000000E+00  0.00000000E+00  0.00000000E+00  0.00000000E+00
  0.00000000E+00  6.89990666E-02  3.16423961E-01  7.44308291E-01  1.00000000E+00
  1.00000000E+00  0.00000000E+00  0.00000000E+00  0.00000000E+00  0.00000000E+00
  0.00000000E+00  0.00000000E+00  0.00000000E+00  6.89990666E-02  3.16423961E-01
  7.44308291E-01  1.00000000E+00  1.00000000E+00  0.00000000E+00  0.00000000E+00
  0.00000000E+00  0.00000000E+00  0.00000000E+00  0.00000000E+00  0.00000000E+00
  6.89990666E-02  3.16423961E-01  7.44308291E-01  1.00000000E+00  1.00000000E+00
  0.00000000E+00  0.00000000E+00  0.00000000E+00  0.00000000E+00  0.00000000E+00
  0.00000000E+00  0.00000000E+00  6.75797439E-02  3.23907296E-01  7.40895140E-01
  1.00000000E+00  1.00000000E+00  0.00000000E+00  0.00000000E+00  0.00000000E+00
  0.00000000E+00  0.00000000E+00  0.00000000E+00  0.00000000E+00  7.08742682E-02
  3.39752839E-01  7.27158577E-01  1.00000000E+00  1.00000000E+00  0.00000000E+00
  0.00000000E+00  0.00000000E+00  0.00000000E+00  0.00000000E+00  0.00000000E+00
  0.00000000E+00  7.08742682E-02  3.39752839E-01  7.27158577E-01  1.00000000E+00
  1.00000000E+00  0.00000000E+00  0.00000000E+00  0.00000000E+00  0.00000000E+00
  0.00000000E+00  0.00000000E+00  0.00000000E+00  0.00000000E+00  0.00000000E+00
  0.00000000E+00  0.00000000E+00  0.00000000E+00  0.00000000E+00  0.00000000E+00
  0.00000000E+00  0.00000000E+00  0.00000000E+00  0.00000000E+00  0.00000000E+00
  0.00000000E+00  0.00000000E+00  0.00000000E+00  0.00000000E+00  0.00000000E+00
  0.00000000E+00  0.00000000E+00  0.00000000E+00  0.00000000E+00  0.00000000E+00
Coordinates of each shell                  R   N=         132
  4.93919640E+00 -1.11824954E+00 -1.09753719E-02  4.93919640E+00 -1.11824954E+00
 -1.09753719E-02  4.93919640E+00 -1.11824954E+00 -1.09753719E-02  4.93919640E+00
 -1.11824954E+00 -1.09753719E-02  4.93919640E+00 -1.11824954E+00 -1.09753719E-02
  3.29087965E+00  7.94895543E-01  7.49874909E-03  3.29087965E+00  7.94895543E-01
  7.49874909E-03  3.29087965E+00  7.94895543E-01  7.49874909E-03  3.29087965E+00
  7.94895543E-01  7.49874909E-03  3.29087965E+00  7.94895543E-01  7.49874909E-03
  5.08215055E-01  3.34652071E-01  1.40887562E-02  5.08215055E-01  3.34652071E-01
  1.40887562E-02  5.08215055E-01  3.34652071E-01  1.40887562E-02  5.08215055E-01
  3.34652071E-01  1.40887562E-02  5.08215055E-01  3.34652071E-01  1.40887562E-02
 -9.66211996E-01  2.43670656E+00  2.52860331E-02 -9.66211996E-01  2.43670656E+00
  2.52860331E-02 -9.66211996E-01  2.43670656E+00  2.52860331E-02 -9.66211996E-01
  2.43670656E+00  2.52860331E-02 -9.66211996E-01  2.43670656E+00  2.52860331E-02
 -4.01919324E-01 -1.82486690E+00  1.43155248E-02 -4.01919324E-01 -1.82486690E+00
  1.43155248E-02 -4.01919324E-01 -1.82486690E+00  1.43155248E-02 -4.01919324E-01
 -1.82486690E+00  1.43155248E-02 -4.01919324E-01 -1.82486690E+00  1.43155248E-02
 -5.49305718E+00 -6.06817427E-01 -1.59511885E-01 -5.49305718E+00 -6.06817427E-01
 -1.59511885E-01 -5.49305718E+00 -6.06817427E-01 -1.59511885E-01 -5.49305718E+00
 -6.06817427E-01 -1.59511885E-01 -5.49305718E+00 -6.06817427E-01 -1.59511885E-01
  3.93906812E+00  2.74842415E+00  1.75738363E-02  3.93906812E+00  2.74842415E+00
  1.75738363E-02  6.96546039E+00 -7.90893441E-01 -1.62563877E-02  6.96546039E+00
 -7.90893441E-01 -1.62563877E-02  4.27275679E+00 -3.06052297E+00 -2.20975372E-02
  4.27275679E+00 -3.06052297E+00 -2.20975372E-02 -2.20187177E-01  4.19173621E+00
 -1.31713625E-02 -2.20187177E-01  4.19173621E+00 -1.31713625E-02 -2.88141015E+00
  2.22080013E+00  2.28281825E-02 -2.88141015E+00  2.22080013E+00  2.28281825E-02
 -3.92385486E+00 -1.60730053E+00 -9.19495550E-02 -3.92385486E+00 -1.60730053E+00
 -9.19495550E-02 -6.65828377E+00 -1.37350328E+00  1.02396867E+00 -6.65828377E+00
 -1.37350328E+00  1.02396867E+00
Alpha Orbital Energies                     R   N=         128
 -1.91477683E+01 -1.91352260E+01 -1.43721219E+01 -1.03103350E+01 -1.02178245E+01
 -1.02151104E+01 -1.04841114E+00 -9.99589960E-01 -9.18870453E-01 -7.96893824E-01
 -6.59347035E-01 -5.82481278E-01 -5.47467808E-01 -5.23409908E-01 -5.14645591E-01
 -4.43182117E-01 -4.36921025E-01 -4.26626563E-01 -3.89275950E-01 -3.79110113E-01
 -3.06951637E-01 -2.92407139E-01 -2.84479463E-01 -2.77286068E-01 -5.67716227E-02
 -5.71528352E-03  1.75217546E-02  2.61068278E-02  5.00143138E-02  5.41335798E-02
  6.49198381E-02  6.66015805E-02  7.86250682E-02  9.44594107E-02  9.74273489E-02
  1.08515341E-01  1.27372547E-01  1.32834118E-01  1.61616691E-01  1.65057327E-01
  1.71298298E-01  1.85897146E-01  1.86923063E-01  1.95089198E-01  1.96760473E-01
  2.12098811E-01  2.20995073E-01  2.40053568E-01  2.45565944E-01  2.59390134E-01
  2.68627618E-01  2.80344203E-01  2.98833134E-01  3.06593367E-01  3.30978040E-01
  3.48407573E-01  3.72298968E-01  3.85776289E-01  4.21361614E-01  4.53194792E-01
  5.07925757E-01  6.22720307E-01  6.59630717E-01  7.05227877E-01  7.22126417E-01
  7.34332336E-01  7.69933572E-01  7.77958482E-01  8.79055273E-01  9.02659399E-01
  9.07343244E-01  9.27519833E-01  9.64389534E-01  9.99651134E-01  1.01752973E+00
  1.02654422E+00  1.06867174E+00  1.10292392E+00  1.11600587E+00  1.13875605E+00
  1.14817526E+00  1.16954809E+00  1.20507211E+00  1.24523994E+00  1.25176045E+00
  1.30000190E+00  1.30718220E+00  1.32252587E+00  1.35053156E+00  1.37343498E+00
  1.42280533E+00  1.45840984E+00  1.47863700E+00  1.54194204E+00  1.61687272E+00
  1.67937640E+00  1.72381640E+00  1.73749074E+00  1.77913688E+00  1.81153009E+00
  1.84988491E+00  1.85822194E+00  1.90549483E+00  1.98010381E+00  2.00622123E+00
  2.01474943E+00  2.06634378E+00  2.17324027E+00  2.20462037E+00  2.28883815E+00
  2.30571592E+00  2.35875098E+00  2.41771050E+00  2.44513374E+00  2.51180741E+00
  2.63511762E+00  2.65898492E+00  2.67279393E+00  2.73920384E+00  2.96309509E+00
  3.10826005E+00  3.18933291E+00  3.92608080E+00  4.00603658E+00  4.20104215E+00
  4.22433149E+00  4.40564910E+00  4.57741545E+00
Alpha MO coefficients                      R   N=       16384
  6.71652134E-06  1.15708863E-05  1.52161920E-05  1.11771652E-05  1.27659980E-06
  5.26863279E-05 -2.88905178E-04  1.33849493E-04 -4.39358060E-07  2.77482224E-03
 -1.65365548E-04  5.67819290E-04 -5.93519119E-05  1.78716988E-05  3.01331743E-05
  1.28544149E-05 -1.85074397E-05 -1.81071759E-06 -9.65211724E-07  1.51875094E-06
  2.36106758E-05  3.18724114E-05 -3.90465673E-06  1.19271416E-07 -4.36165070E-04
 -7.21193215E-05  2.73746599E-04 -1.33669513E-05  1.42493136E-02 -5.26882258E-03
  1.10845787E-04  2.17811716E-04 -2.16096099E-05 -1.59482335E-05  3.52621169E-06
  1.42882124E-05  1.44347869E-06 -4.85580494E-07 -5.48673472E-06 -4.01263467E-05
 -4.22825506E-05 -1.87140536E-06 -1.31649589E-05  7.84381134E-05  3.47871980E-04
  1.34484314E-04  6.34277168E-05 -1.61246574E-02 -6.50054576E-03 -1.17911821E-03
 -1.18813159E-04  3.51109242E-05 -2.63345318E-05 -1.17999433E-05 -6.39504547E-06
  3.38160949E-06 -1.52413973E-06  3.51166581E-06 -3.10666824E-05 -1.19348488E-05
 -1.89899605E-05 -5.37429548E-06  9.50822112E-05 -2.51870601E-04 -8.49924086E-05
  1.19009815E-05  5.46258010E-04 -5.12404138E-04 -4.35639808E-04 -1.17748275E-04
  6.60102040E-05  1.40957455E-05  9.81074022E-06  2.86740113E-05  5.60738601E-06
  8.17523859E-06 -1.52051940E-04 -1.28361221E-05 -1.04940711E-05  9.11974925E-06
 -5.16316720E-08  4.71893059E-05 -1.02696355E-04  6.31988238E-05 -8.32183823E-06
  5.77349872E-04 -3.03683813E-05  1.14167037E-04 -6.30928026E-05  5.64353726E-05
  2.88117790E-05  2.40294970E-05  3.59208701E-06  7.05656756E-06 -5.66781020E-06
  9.92625972E-01  2.55005089E-02  5.70819742E-05 -8.45233636E-04  6.71991066E-04
  1.40481302E-02  3.06706286E-04  4.82689552E-04 -3.51423520E-04 -3.74452726E-03
 -1.08973652E-03 -7.58610519E-04  4.36421904E-04 -8.49375784E-03 -8.43813040E-03
 -8.46157973E-03 -8.50891148E-06  3.04961081E-05  1.84256547E-05  6.30257663E-06
 -1.54718581E-04  1.96063190E-05  1.04469458E-04 -2.96902370E-05  1.23379974E-04
 -1.34090939E-05  2.27953160E-04 -2.99777468E-05 -4.72015569E-04  2.97046044E-04
 -9.07301806E-04  4.07446037E-04 -9.85830178E-04 -2.89199254E-06 -2.93306387E-05
 -7.32946799E-06 -3.02981263E-05 -1.57588331E-07 -3.25750031E-04 -3.09573112E-05
 -7.81271285E-05  3.95310999E-09  3.21579693E-03 -1.41553236E-05  8.60867852E-04
  3.48476669E-06  3.31086732E-05 -3.57390411E-05  7.59579314E-06  1.42677485E-05
 -1.35238101E-07 -4.68864985E-07 -1.79668737E-06  5.55586575E-05 -7.92646124E-06
  2.28770487E-05  2.56664280E-07 -1.97210553E-04  4.60658446E-04 -4.00557653E-04
 -4.73036079E-06 -3.46761178E-03 -1.62913353E-03  1.88794778E-03  1.70608103E-05
 -2.41510937E-05 -5.42046707E-05 -3.94687068E-06 -7.70048726E-05 -2.75193756E-08
  1.22151627E-07 -2.21593322E-05  3.74944790E-04 -1.34862327E-04 -2.94623245E-04
 -8.47549076E-07  2.16464720E-04  5.65575903E-04  1.25147225E-03  6.32317660E-06
  1.35645261E-03  7.04769381E-04 -3.58033233E-03 -4.09960018E-06 -1.62229187E-04
 -3.39723078E-04 -1.83234229E-04 -1.08975341E-04 -4.41656576E-07 -1.94035716E-07
  7.87299461E-06  8.69122783E-05  2.55106988E-05  2.97534574E-05 -5.81204605E-07
 -4.00793936E-04 -3.68495035E-04 -7.47790424E-05  3.99605971E-06  2.20248046E-03
 -2.21238288E-05  1.32389823E-04 -1.49020996E-05  6.04553080E-05 -1.19008664E-04
  1.96161860E-05 -2.51448860E-05  1.61464682E-07  1.19268449E-06  9.92555937E-01
  2.51559265E-02  3.96189696E-04  1.15381956E-03  2.65149138E-06  1.59673259E-02
 -1.13791419E-04 -3.27819147E-04 -3.49864797E-06 -6.95851626E-03 -1.35088467E-04
  1.41219859E-04 -3.22040107E-06 -8.64822048E-03 -8.64246159E-03 -8.67833604E-03
  1.47049275E-05  8.48969698E-07 -7.21765334E-07  1.52835667E-04 -6.03132670E-05
  1.15901797E-05  6.14706122E-06 -2.72566856E-06  2.32558754E-04  1.69502612E-04
 -1.31756696E-04  3.19490891E-05  5.23744374E-04  2.36125315E-04 -2.51167422E-05
  5.46247581E-05  5.51516489E-05  1.96802253E-06 -4.02767288E-05 -5.08667089E-05
 -5.22687979E-06 -9.12676777E-06  5.41669885E-05  5.60049029E-05  2.63620534E-06
  9.46353192E-05  1.82424302E-05  1.80771831E-04  1.14173916E-04 -1.81997862E-04
  2.40167849E-05 -4.27983008E-04 -1.81233976E-04 -3.30021295E-04 -1.73618293E-05
 -1.30104420E-04 -1.29508614E-06 -5.54478367E-06  5.46267238E-06  9.35490386E-06
 -7.78934017E-08 -1.98546319E-04  4.39511443E-05 -2.08225714E-05 -1.18030723E-07
  6.77353045E-04 -7.79655590E-05  1.17653460E-04  1.67199200E-06 -3.47164531E-06
  2.29427565E-05 -9.83831655E-06 -1.40109604E-05 -7.65726248E-08  3.08718757E-07
 -7.55915785E-06  3.08434047E-05  2.50876577E-05  9.43742601E-06  2.16171362E-07
  1.77614981E-04 -9.57220389E-06 -3.42639661E-04 -1.38401395E-06 -8.08878698E-04
 -1.94653937E-04  1.13595183E-04 -4.83973716E-06 -8.71955974E-05 -2.77843557E-05
 -2.27612646E-05  5.22781698E-05  3.19957380E-07 -3.60714302E-07  1.91375770E-05
  1.46292960E-04 -1.85194461E-04  2.28599940E-04  9.92912289E-07  2.04615307E-05
 -2.13924234E-04  4.69880339E-04 -5.77737999E-07  1.00109341E-03 -1.02740439E-04
  3.42598496E-04  1.49734326E-05  4.34521833E-05  5.74665899E-05 -6.16691410E-05
 -4.93731402E-05 -5.61316523E-07  7.61709678E-07  9.92569502E-01  3.48626822E-02
  1.16048442E-04  6.02783341E-05 -2.43381270E-05  4.62925924E-03 -3.08547140E-04
  2.11872003E-04  1.51099523E-05 -1.96341362E-03 -9.70214635E-05  4.78631755E-04
 -1.09834137E-05 -8.48932533E-03 -8.52354279E-03 -8.52139593E-03  5.31456882E-05
 -3.94857017E-07 -1.56793779E-06 -6.68683691E-06 -1.30991754E-05 -7.04355161E-06
 -1.75982609E-05 -2.88139737E-07  2.42473429E-04  1.39098696E-04 -3.87038918E-05
  1.49823148E-06  2.72931039E-04  4.00196216E-05  1.19970586E-04 -2.55882874E-06
  2.11780324E-06 -1.07844580E-04 -1.31393710E-05  4.50819102E-05  3.41431929E-08
 -1.17408937E-07  1.06086487E-05  3.18078478E-05  1.41702140E-05  6.28443526E-06
 -2.54611734E-07 -1.65248812E-04 -3.42395742E-05  1.05496121E-05  4.60949368E-06
  3.35878721E-04  1.52391209E-04  9.68873410E-05  1.79309292E-05  2.29612995E-05
  4.19985362E-05  3.80696357E-05  1.50388172E-05 -3.10845234E-06 -7.58853515E-07
  1.18853454E-05  2.18041670E-04  3.76127027E-06  1.53614302E-05  3.57802955E-06
  4.35810545E-06  2.82390971E-04 -4.99634512E-04  2.94414462E-04 -6.13520595E-04
  3.89321375E-05 -3.28524675E-05 -7.87383707E-06 -2.07749905E-05  1.22638490E-05
 -4.47921127E-05 -2.12713807E-05 -1.31647938E-05  2.46724035E-07  1.13206431E-04
  6.15175006E-04  4.31707756E-04  1.99706961E-06 -1.15478154E-02  1.93323080E-03
 -1.98797474E-03 -3.32413270E-05  4.66339961E-05  7.89754430E-05 -3.01072815E-05
  1.01316728E-05 -5.28414722E-07  1.09805800E-06  1.40805351E-03 -4.05520321E-05
  1.55274201E-04  3.10460021E-05  5.56372795E-07  4.54720382E-03 -2.75686431E-03
  2.81487623E-04  9.46379911E-07  2.09926569E-02  3.09429463E-04 -2.68321433E-03