aa rad opt                                                              
Freq      UB3LYP                                                      6-31+G(d)           
Number of atoms                            I               11
Charge                                     I                0
Multiplicity                               I                2
Number of electrons                        I               39
Number of alpha electrons                  I               20
Number of beta electrons                   I               19
Number of basis functions                  I              107
Number of independant functions            I              107
Number of point charges in /Mol/           I                0
Number of translation vectors              I                0
Info1-9                                    I   N=           9
          49          48        1002           0           0         100
           6          18        -501
Num ILSW                                   I              100
ILSW                                       I   N=         100
           1           1           0           0           2           0
           0           0           0           0         402      200000
           0           0           0           0           0           0
           0      800000           0           0           1           0
           1           0           0           0     1000000           0
           0           0      100000           0          -1           0
           0           0           0           0           0           0
           0           0           0           1           0           0
           0           0           1      720000      810000           0
           0           0           0           0           0           0
           0           0           0           0           0           0
           0           0           0           0           0           0
           0           0           0           0           0           0
           0           0           0           0           0           0
           0           0           0           0           0           0
           0           0           0           0           0           0
           0           0           0           0
Number of contracted shells                I               37
Highest angular momentum                   I                2
Largest degree of contraction              I                6
Number of primitive shells                 I               84
Pure/Cartesian d shells                    I                1
Pure/Cartesian f shells                    I                0
Virial Ratio                               R      2.009729687252066E+00
SCF Energy                                 R     -2.478867224323960E+02
Total Energy                               R     -2.478867224323960E+02
S**2                                       R      7.560653624525386E-01
S**2 after annihilation                    R      7.500259957405544E-01
RMS Force                                  R      1.285111021695712E-05
RMS Density                                R      2.292398807831672E-09
Atomic numbers                             I   N=          11
           6           6           1           1           1           6
           8           7           1           1           1
Nuclear charges                            R   N=          11
  6.00000000E+00  6.00000000E+00  1.00000000E+00  1.00000000E+00  1.00000000E+00
  6.00000000E+00  8.00000000E+00  7.00000000E+00  1.00000000E+00  1.00000000E+00
  1.00000000E+00
Current cartesian coordinates              R   N=          33
  1.29567766E+00 -1.27250846E+00  1.49725607E-02  3.82705734E+00 -6.11598667E-02
 -1.45798997E-02  1.16346153E+00 -3.32581545E+00  6.89512106E-02  4.92992845E+00
 -5.90306833E-01  1.66841210E+00  3.64529729E+00  1.99552887E+00 -7.12992654E-02
 -1.02683252E+00  2.17892328E-01  4.05906149E-03 -1.03366898E+00  2.55479907E+00
 -4.86800200E-03 -3.25949245E+00 -1.13977304E+00  7.80572571E-02 -3.29675606E+00
 -3.00314226E+00 -3.37608688E-01 -4.87326404E+00 -1.55266367E-01 -2.06847585E-01
  4.94171693E+00 -6.86323279E-01 -1.65577489E+00
Int Atom Types                             I   N=          11
           0           0           0           0           0           0
           0           0           0           0           0
Force Field                                I                0
MM charges                                 R   N=          11
  0.00000000E+00  0.00000000E+00  0.00000000E+00  0.00000000E+00  0.00000000E+00
  0.00000000E+00  0.00000000E+00  0.00000000E+00  0.00000000E+00  0.00000000E+00
  0.00000000E+00
Integer atomic weights                     I   N=          11
          12          12           1           1           1          12
          16          14           1           1           1
Real atomic weights                        R   N=          11
  1.20000000E+01  1.20000000E+01  1.00782504E+00  1.00782504E+00  1.00782504E+00
  1.20000000E+01  1.59949146E+01  1.40030740E+01  1.00782504E+00  1.00782504E+00
  1.00782504E+00
Atom residue info                          I   N=          11
           0           0           0           0           0           0
           0           0           0           0           0
Atom fragment info                         I   N=          11
           0           0           0           0           0           0
           0           0           0           0           0
Atom residue num                           I   N=          11
           0           0           0           0           0           0
           0           0           0           0           0
Nuclear spins                              I   N=          11
           0           0           1           1           1           0
           0           2           1           1           1
Nuclear ZEff                               R   N=          11
 -3.60000000E+00 -3.60000000E+00 -1.00000000E+00 -1.00000000E+00 -1.00000000E+00
 -3.60000000E+00 -5.60000000E+00 -4.55000000E+00 -1.00000000E+00 -1.00000000E+00
 -1.00000000E+00
Nuclear QMom                               R   N=          11
  0.00000000E+00  0.00000000E+00  0.00000000E+00  0.00000000E+00  0.00000000E+00
  0.00000000E+00  0.00000000E+00  2.04400000E+00  0.00000000E+00  0.00000000E+00
  0.00000000E+00
Nuclear GFac                               R   N=          11
  0.00000000E+00  0.00000000E+00  2.79284600E+00  2.79284600E+00  2.79284600E+00
  0.00000000E+00  0.00000000E+00  4.03761000E-01  2.79284600E+00  2.79284600E+00
  2.79284600E+00
MicOpt                                     I   N=          11
          -1          -1          -1          -1          -1          -1
          -1          -1          -1          -1          -1
Constraint Structure                       R   N=          33
  1.29567766E+00 -1.27250846E+00  1.49725607E-02  3.82705734E+00 -6.11598667E-02
 -1.45798997E-02  1.16346153E+00 -3.32581545E+00  6.89512106E-02  4.92992845E+00
 -5.90306833E-01  1.66841210E+00  3.64529729E+00  1.99552887E+00 -7.12992654E-02
 -1.02683252E+00  2.17892328E-01  4.05906149E-03 -1.03366898E+00  2.55479907E+00
 -4.86800200E-03 -3.25949245E+00 -1.13977304E+00  7.80572571E-02 -3.29675606E+00
 -3.00314226E+00 -3.37608688E-01 -4.87326404E+00 -1.55266367E-01 -2.06847585E-01
  4.94171693E+00 -6.86323279E-01 -1.65577489E+00
ONIOM Charges                              I   N=          16
           0           0           0           0           0           0
           0           0           0           0           0           0
           0           0           0           0
ONIOM Multiplicities                       I   N=          16
           2           0           0           0           0           0
           0           0           0           0           0           0
           0           0           0           0
Atom Layers                                I   N=          11
           0           0           0           0           0           0
           0           0           0           0           0
Atom Modifiers                             I   N=          11
           0           0           0           0           0           0
           0           0           0           0           0
Int Atom Modified Types                    I   N=          11
           0           0           0           0           0           0
           0           0           0           0           0
Link Atoms                                 I   N=          11
           0           0           0           0           0           0
           0           0           0           0           0
Atom Modified MM Charges                   R   N=          11
  0.00000000E+00  0.00000000E+00  0.00000000E+00  0.00000000E+00  0.00000000E+00
  0.00000000E+00  0.00000000E+00  0.00000000E+00  0.00000000E+00  0.00000000E+00
  0.00000000E+00
Link Distances                             R   N=          44
  0.00000000E+00  0.00000000E+00  0.00000000E+00  0.00000000E+00  0.00000000E+00
  0.00000000E+00  0.00000000E+00  0.00000000E+00  0.00000000E+00  0.00000000E+00
  0.00000000E+00  0.00000000E+00  0.00000000E+00  0.00000000E+00  0.00000000E+00
  0.00000000E+00  0.00000000E+00  0.00000000E+00  0.00000000E+00  0.00000000E+00
  0.00000000E+00  0.00000000E+00  0.00000000E+00  0.00000000E+00  0.00000000E+00
  0.00000000E+00  0.00000000E+00  0.00000000E+00  0.00000000E+00  0.00000000E+00
  0.00000000E+00  0.00000000E+00  0.00000000E+00  0.00000000E+00  0.00000000E+00
  0.00000000E+00  0.00000000E+00  0.00000000E+00  0.00000000E+00  0.00000000E+00
  0.00000000E+00  0.00000000E+00  0.00000000E+00  0.00000000E+00
MxBond                                     I                4
NBond                                      I   N=          11
           3           4           1           1           1           3
           1           3           1           1           1
IBond                                      I   N=          44
           2           3           6           0           1           4
           5          11           1           0           0           0
           2           0           0           0           2           0
           0           0           1           7           8           0
           6           0           0           0           6           9
          10           0           8           0           0           0
           8           0           0           0           2           0
           0           0
RBond                                      R   N=          44
  2.00000000E+00  1.00000000E+00  1.00000000E+00  0.00000000E+00  2.00000000E+00
  1.00000000E+00  1.00000000E+00  1.00000000E+00  1.00000000E+00  0.00000000E+00
  0.00000000E+00  0.00000000E+00  1.00000000E+00  0.00000000E+00  0.00000000E+00
  0.00000000E+00  1.00000000E+00  0.00000000E+00  0.00000000E+00  0.00000000E+00
  1.00000000E+00  2.00000000E+00  1.00000000E+00  0.00000000E+00  2.00000000E+00
  0.00000000E+00  0.00000000E+00  0.00000000E+00  1.00000000E+00  1.00000000E+00
  1.00000000E+00  0.00000000E+00  1.00000000E+00  0.00000000E+00  0.00000000E+00
  0.00000000E+00  1.00000000E+00  0.00000000E+00  0.00000000E+00  0.00000000E+00
  1.00000000E+00  0.00000000E+00  0.00000000E+00  0.00000000E+00
Shell types                                I   N=          37
           0          -1          -1          -1           2           0
          -1          -1          -1           2           0           0
           0           0           0           0           0          -1
          -1          -1           2           0          -1          -1
          -1           2           0          -1          -1          -1
           2           0           0           0           0           0
           0
Number of primitives per shell             I   N=          37
           6           3           1           1           1           6
           3           1           1           1           3           1
           3           1           3           1           6           3
           1           1           1           6           3           1
           1           1           6           3           1           1
           1           3           1           3           1           3
           1
Shell to atom map                          I   N=          37
           1           1           1           1           1           2
           2           2           2           2           3           3
           4           4           5           5           6           6
           6           6           6           7           7           7
           7           7           8           8           8           8
           8           9           9          10          10          11
          11
Primitive exponents                        R   N=          84
  3.04752488E+03  4.57369518E+02  1.03948685E+02  2.92101553E+01  9.28666296E+00
  3.16392696E+00  7.86827235E+00  1.88128854E+00  5.44249258E-01  1.68714478E-01
  4.38000000E-02  8.00000000E-01  3.04752488E+03  4.57369518E+02  1.03948685E+02
  2.92101553E+01  9.28666296E+00  3.16392696E+00  7.86827235E+00  1.88128854E+00
  5.44249258E-01  1.68714478E-01  4.38000000E-02  8.00000000E-01  1.87311370E+01
  2.82539436E+00  6.40121692E-01  1.61277759E-01  1.87311370E+01  2.82539436E+00
  6.40121692E-01  1.61277759E-01  1.87311370E+01  2.82539436E+00  6.40121692E-01
  1.61277759E-01  3.04752488E+03  4.57369518E+02  1.03948685E+02  2.92101553E+01
  9.28666296E+00  3.16392696E+00  7.86827235E+00  1.88128854E+00  5.44249258E-01
  1.68714478E-01  4.38000000E-02  8.00000000E-01  5.48467166E+03  8.25234946E+02
  1.88046958E+02  5.29645000E+01  1.68975704E+01  5.79963534E+00  1.55396162E+01
  3.59993359E+00  1.01376175E+00  2.70005823E-01  8.45000000E-02  8.00000000E-01
  4.17351146E+03  6.27457911E+02  1.42902093E+02  4.02343293E+01  1.28202129E+01
  4.39043701E+00  1.16263619E+01  2.71627981E+00  7.72218397E-01  2.12031498E-01
  6.39000000E-02  8.00000000E-01  1.87311370E+01  2.82539436E+00  6.40121692E-01
  1.61277759E-01  1.87311370E+01  2.82539436E+00  6.40121692E-01  1.61277759E-01
  1.87311370E+01  2.82539436E+00  6.40121692E-01  1.61277759E-01
Contraction coefficients                   R   N=          84
  1.83473713E-03  1.40373228E-02  6.88426223E-02  2.32184443E-01  4.67941348E-01
  3.62311985E-01 -1.19332420E-01 -1.60854152E-01  1.14345644E+00  1.00000000E+00
  1.00000000E+00  1.00000000E+00  1.83473713E-03  1.40373228E-02  6.88426223E-02
  2.32184443E-01  4.67941348E-01  3.62311985E-01 -1.19332420E-01 -1.60854152E-01
  1.14345644E+00  1.00000000E+00  1.00000000E+00  1.00000000E+00  3.34946043E-02
  2.34726953E-01  8.13757326E-01  1.00000000E+00  3.34946043E-02  2.34726953E-01
  8.13757326E-01  1.00000000E+00  3.34946043E-02  2.34726953E-01  8.13757326E-01
  1.00000000E+00  1.83473713E-03  1.40373228E-02  6.88426223E-02  2.32184443E-01
  4.67941348E-01  3.62311985E-01 -1.19332420E-01 -1.60854152E-01  1.14345644E+00
  1.00000000E+00  1.00000000E+00  1.00000000E+00  1.83107443E-03  1.39501722E-02
  6.84450781E-02  2.32714336E-01  4.70192898E-01  3.58520853E-01 -1.10777550E-01
 -1.48026263E-01  1.13076702E+00  1.00000000E+00  1.00000000E+00  1.00000000E+00
  1.83477216E-03  1.39946270E-02  6.85865518E-02  2.32240873E-01  4.69069948E-01
  3.60455199E-01 -1.14961182E-01 -1.69117479E-01  1.14585195E+00  1.00000000E+00
  1.00000000E+00  1.00000000E+00  3.34946043E-02  2.34726953E-01  8.13757326E-01
  1.00000000E+00  3.34946043E-02  2.34726953E-01  8.13757326E-01  1.00000000E+00
  3.34946043E-02  2.34726953E-01  8.13757326E-01  1.00000000E+00
P(S=P) Contraction coefficients            R   N=          84
  0.00000000E+00  0.00000000E+00  0.00000000E+00  0.00000000E+00  0.00000000E+00
  0.00000000E+00  6.89990666E-02  3.16423961E-01  7.44308291E-01  1.00000000E+00
  1.00000000E+00  0.00000000E+00  0.00000000E+00  0.00000000E+00  0.00000000E+00
  0.00000000E+00  0.00000000E+00  0.00000000E+00  6.89990666E-02  3.16423961E-01
  7.44308291E-01  1.00000000E+00  1.00000000E+00  0.00000000E+00  0.00000000E+00
  0.00000000E+00  0.00000000E+00  0.00000000E+00  0.00000000E+00  0.00000000E+00
  0.00000000E+00  0.00000000E+00  0.00000000E+00  0.00000000E+00  0.00000000E+00
  0.00000000E+00  0.00000000E+00  0.00000000E+00  0.00000000E+00  0.00000000E+00
  0.00000000E+00  0.00000000E+00  6.89990666E-02  3.16423961E-01  7.44308291E-01
  1.00000000E+00  1.00000000E+00  0.00000000E+00  0.00000000E+00  0.00000000E+00
  0.00000000E+00  0.00000000E+00  0.00000000E+00  0.00000000E+00  7.08742682E-02
  3.39752839E-01  7.27158577E-01  1.00000000E+00  1.00000000E+00  0.00000000E+00
  0.00000000E+00  0.00000000E+00  0.00000000E+00  0.00000000E+00  0.00000000E+00
  0.00000000E+00  6.75797439E-02  3.23907296E-01  7.40895140E-01  1.00000000E+00
  1.00000000E+00  0.00000000E+00  0.00000000E+00  0.00000000E+00  0.00000000E+00
  0.00000000E+00  0.00000000E+00  0.00000000E+00  0.00000000E+00  0.00000000E+00
  0.00000000E+00  0.00000000E+00  0.00000000E+00  0.00000000E+00
Coordinates of each shell                  R   N=         111
  1.29567766E+00 -1.27250846E+00  1.49725607E-02  1.29567766E+00 -1.27250846E+00
  1.49725607E-02  1.29567766E+00 -1.27250846E+00  1.49725607E-02  1.29567766E+00
 -1.27250846E+00  1.49725607E-02  1.29567766E+00 -1.27250846E+00  1.49725607E-02
  3.82705734E+00 -6.11598667E-02 -1.45798997E-02  3.82705734E+00 -6.11598667E-02
 -1.45798997E-02  3.82705734E+00 -6.11598667E-02 -1.45798997E-02  3.82705734E+00
 -6.11598667E-02 -1.45798997E-02  3.82705734E+00 -6.11598667E-02 -1.45798997E-02
  1.16346153E+00 -3.32581545E+00  6.89512106E-02  1.16346153E+00 -3.32581545E+00
  6.89512106E-02  4.92992845E+00 -5.90306833E-01  1.66841210E+00  4.92992845E+00
 -5.90306833E-01  1.66841210E+00  3.64529729E+00  1.99552887E+00 -7.12992654E-02
  3.64529729E+00  1.99552887E+00 -7.12992654E-02 -1.02683252E+00  2.17892328E-01
  4.05906149E-03 -1.02683252E+00  2.17892328E-01  4.05906149E-03 -1.02683252E+00
  2.17892328E-01  4.05906149E-03 -1.02683252E+00  2.17892328E-01  4.05906149E-03
 -1.02683252E+00  2.17892328E-01  4.05906149E-03 -1.03366898E+00  2.55479907E+00
 -4.86800200E-03 -1.03366898E+00  2.55479907E+00 -4.86800200E-03 -1.03366898E+00
  2.55479907E+00 -4.86800200E-03 -1.03366898E+00  2.55479907E+00 -4.86800200E-03
 -1.03366898E+00  2.55479907E+00 -4.86800200E-03 -3.25949245E+00 -1.13977304E+00
  7.80572571E-02 -3.25949245E+00 -1.13977304E+00  7.80572571E-02 -3.25949245E+00
 -1.13977304E+00  7.80572571E-02 -3.25949245E+00 -1.13977304E+00  7.80572571E-02
 -3.25949245E+00 -1.13977304E+00  7.80572571E-02 -3.29675606E+00 -3.00314226E+00
 -3.37608688E-01 -3.29675606E+00 -3.00314226E+00 -3.37608688E-01 -4.87326404E+00
 -1.55266367E-01 -2.06847585E-01 -4.87326404E+00 -1.55266367E-01 -2.06847585E-01
  4.94171693E+00 -6.86323279E-01 -1.65577489E+00  4.94171693E+00 -6.86323279E-01
 -1.65577489E+00
Alpha Orbital Energies                     R   N=         107
 -1.91262298E+01 -1.43668308E+01 -1.02964373E+01 -1.02302460E+01 -1.01946711E+01
 -1.03838878E+00 -9.10544341E-01 -7.91916844E-01 -6.75611576E-01 -5.76480601E-01
 -5.36003021E-01 -5.06212992E-01 -4.43587113E-01 -4.24817123E-01 -4.10997713E-01
 -4.04978155E-01 -3.78945239E-01 -2.86511253E-01 -2.66598961E-01 -2.32043626E-01
 -7.86608934E-03  1.58586975E-02  3.31771685E-02  4.13634536E-02  5.61167203E-02
  6.28518894E-02  6.90295239E-02  8.35606514E-02  8.94899192E-02  9.57219998E-02
  9.95939882E-02  1.14937721E-01  1.31392465E-01  1.53445857E-01  1.71015380E-01
  1.73349084E-01  1.93074794E-01  2.12099763E-01  2.17291647E-01  2.31892141E-01
  2.36914184E-01  2.59863795E-01  2.79474038E-01  2.91854621E-01  2.95101239E-01
  3.12574298E-01  3.21270273E-01  3.41238978E-01  3.81163466E-01  4.23607065E-01
  5.01533240E-01  6.38694743E-01  6.50206667E-01  6.77544427E-01  6.90517517E-01
  7.09980387E-01  7.14983901E-01  7.84357725E-01  8.00691284E-01  8.78064208E-01
  8.99301092E-01  9.10533942E-01  9.20891711E-01  9.57186313E-01  9.82948442E-01
  1.01344372E+00  1.05961463E+00  1.10396964E+00  1.13096522E+00  1.18527158E+00
  1.22572970E+00  1.24996814E+00  1.29283837E+00  1.32557837E+00  1.33915751E+00
  1.38211895E+00  1.40237274E+00  1.42565487E+00  1.51620566E+00  1.68379922E+00
  1.70120890E+00  1.79179233E+00  1.80311613E+00  1.83513266E+00  1.91787157E+00
  1.93551141E+00  1.95507546E+00  2.03215659E+00  2.09793726E+00  2.16361920E+00
  2.24073095E+00  2.24624007E+00  2.31124862E+00  2.36717545E+00  2.42614707E+00
  2.47520671E+00  2.53746773E+00  2.63541603E+00  2.68904660E+00  2.92242958E+00
  3.08354313E+00  3.17480809E+00  3.92767852E+00  4.16304900E+00  4.28915607E+00
  4.40440006E+00  4.54529498E+00
Beta Orbital Energies                      R   N=         107
 -1.91223963E+01 -1.43657305E+01 -1.02975570E+01 -1.02182788E+01 -1.01953342E+01
 -1.03226559E+00 -9.06910771E-01 -7.73106355E-01 -6.66482204E-01 -5.71765323E-01
 -5.30667600E-01 -5.00485349E-01 -4.24779616E-01 -4.20844621E-01 -4.04067755E-01
 -3.95837965E-01 -3.76297078E-01 -2.71357845E-01 -2.60525411E-01 -1.07899087E-01
 -6.92589495E-03  1.64019663E-02  3.40541622E-02  4.99619507E-02  6.25707706E-02
  6.54393736E-02  6.93567602E-02  8.54442373E-02  9.02074440E-02  9.98420026E-02
  1.08786715E-01  1.15981385E-01  1.31331605E-01  1.57562598E-01  1.71949009E-01
  1.74569485E-01  1.94590172E-01  2.17241251E-01  2.24727973E-01  2.34661124E-01
  2.43657885E-01  2.63224359E-01  2.81939776E-01  2.93829919E-01  2.98858397E-01
  3.17333569E-01  3.22540103E-01  3.44335435E-01  3.82325927E-01  4.28593924E-01
  5.03019422E-01  6.42963910E-01  6.64938168E-01  6.78575555E-01  7.03434476E-01
  7.16340228E-01  7.42902805E-01  7.87574480E-01  8.03472561E-01  8.80008262E-01
  9.03583412E-01  9.16966423E-01  9.28610107E-01  9.60418853E-01  9.85763434E-01
  1.01705081E+00  1.07119560E+00  1.10903272E+00  1.13467678E+00  1.18836286E+00
  1.23067082E+00  1.26337717E+00  1.29864998E+00  1.33531890E+00  1.34285095E+00
  1.38708403E+00  1.41438507E+00  1.42878623E+00  1.53852073E+00  1.68879714E+00
  1.70627948E+00  1.80517841E+00  1.81722373E+00  1.83883025E+00  1.92566216E+00
  1.95421804E+00  1.96173534E+00  2.04265698E+00  2.11915047E+00  2.17722642E+00
  2.24408145E+00  2.25162397E+00  2.32182738E+00  2.36886733E+00  2.43635169E+00
  2.49939604E+00  2.54192022E+00  2.64277041E+00  2.69460472E+00  2.92673967E+00
  3.08551712E+00  3.17720730E+00  3.93007696E+00  4.17799688E+00  4.29056175E+00
  4.41601389E+00  4.55157910E+00
Alpha MO coefficients                      R   N=       11449
 -6.43389630E-06  4.35544171E-05 -2.69407605E-05 -3.01397498E-05  2.98939045E-08
 -6.40382672E-05  5.63174018E-04  3.02553104E-04 -5.63114580E-06 -8.49974923E-04
 -2.44064366E-03 -9.21278323E-04  3.86157059E-06  1.11577666E-05 -1.11511371E-04
 -1.55711370E-05  4.46394531E-05 -7.38820947E-07  1.09825600E-06  4.36739852E-06
  3.82503931E-06  1.07989371E-05  2.91690627E-05 -6.84618048E-07 -5.04118687E-04
  5.93931236E-05  2.21989338E-05  3.33002797E-06  2.30403764E-03 -2.49770118E-04
 -6.79054814E-04  1.37552778E-05  2.34261124E-05 -6.34710155E-06  1.42123842E-05
 -4.12138945E-05  7.72029788E-07  9.81829113E-07  6.58097878E-05  6.10573139E-05
 -3.86644924E-06  9.72836069E-05  2.29666383E-05  2.99899216E-04 -1.55594328E-05
  4.15690133E-04 -1.10426083E-05  3.16318348E-04 -1.10238800E-06 -3.79555957E-05
  4.44638392E-06 -1.34124726E-03  1.43427262E-05 -2.99893292E-04  1.46683157E-03
  3.60111499E-03 -1.53224424E-06 -1.17090051E-04 -4.10232322E-04 -1.76352094E-04
 -8.05061363E-06 -2.07904947E-06  4.87476815E-07  9.92532003E-01  2.52715848E-02
 -2.87096387E-05 -1.26458396E-03  5.62940196E-06  1.59735970E-02  8.16634363E-05
  3.37957010E-04 -2.81726665E-06 -6.98069191E-03 -2.59450617E-04 -1.63597639E-04
 -3.16573673E-06 -8.71014593E-03 -8.65951934E-03 -8.67150576E-03 -2.41790334E-06
  4.78696508E-07  2.85565371E-07  1.50686147E-05  1.09578269E-04 -1.74766779E-06
 -3.75724685E-05  1.68983501E-06 -5.79971659E-04 -1.78972225E-04  1.86863250E-04
  7.39437219E-06  2.35189605E-03  4.30616319E-05 -7.93447444E-05 -6.42082632E-05
  6.25031329E-05 -8.61227051E-05  3.53618682E-05 -5.10636665E-05  4.49843937E-08
 -9.59461269E-06  1.05032850E-04 -1.36441452E-04  1.59004027E-05 -1.59763504E-04
 -2.49821416E-06  9.98645485E-05 -7.82540928E-06  3.08701408E-05  2.11341003E-05
 -1.85432764E-05  9.57062566E-07  2.27885956E-04  1.13001576E-04  3.49328287E-04
  9.89254582E-06 -4.54479295E-04 -9.93647864E-04  1.03371516E-05 -2.19821740E-05
 -1.04979680E-04 -8.84107494E-06 -2.29537004E-05 -9.61446383E-06  2.37362172E-07
  3.90604776E-06 -1.55818778E-07 -1.94599640E-06  8.01084403E-06  1.44381969E-06
 -1.90325352E-07 -1.74407327E-04  8.93831200E-05 -2.27625067E-05 -9.63584214E-06
  1.92613720E-03 -4.22988816E-04 -2.29815345E-04 -2.90232046E-05  3.83023855E-06
  7.93465917E-06 -6.55944112E-06  1.32208126E-05  4.57454452E-07  8.59284383E-07
  1.92013322E-05  2.15902878E-04  9.93702298E-06 -4.21605322E-05  9.47626365E-06
  1.02314114E-06  1.21170532E-05  1.20642699E-04 -2.61747826E-04 -1.33219778E-04
  6.66760830E-06 -5.78992188E-05 -4.07593462E-04 -3.12525605E-04 -4.71334779E-05
 -3.81272673E-04 -7.41282557E-04 -1.40275004E-04  2.01805293E-04  1.12068672E-04
  3.89843251E-05 -5.90394980E-05  6.24235522E-05 -4.45898647E-06 -5.83056659E-06
 -3.50487289E-06  2.28136155E-06  1.20924131E-06  1.89617593E-05 -4.06201866E-06
  1.54407259E-04  1.38825213E-04 -1.30783838E-05  2.87678551E-05  4.18227470E-04
 -6.21626872E-06 -1.31559617E-04 -4.48761432E-05 -3.27314906E-05 -5.60373646E-05
 -3.70750357E-06 -7.08251855E-05  2.93585602E-06 -2.33745511E-06  9.92575231E-01
  3.48914809E-02 -3.02783010E-05 -4.12905039E-05 -4.21619205E-04  4.45605899E-03
 -2.13938289E-04 -1.45446790E-04  2.66799898E-04 -2.17572481E-03 -3.76590974E-04
 -1.59308606E-04 -2.37012101E-04 -8.54069187E-03 -8.48518342E-03 -8.47903430E-03
 -6.04139119E-05  9.30276519E-06  1.07747059E-05  2.67773947E-04 -3.60465807E-04
  2.88215343E-04 -3.90694694E-04  1.31066792E-05 -6.98033645E-05  2.60353016E-03
  2.17027680E-05  1.84753251E-04 -8.27645414E-05  4.43512619E-06  4.20589690E-03
 -2.35988693E-03  4.03402220E-04 -5.14038774E-06  1.74683740E-02  5.71294684E-04
  1.95582878E-03 -1.90891104E-04 -3.13399138E-04 -1.67001421E-04 -8.96691959E-05
  1.75928567E-04  3.39550529E-06 -2.67653283E-06 -1.77217144E-05 -5.24575590E-05
 -2.38346092E-05  1.23517158E-05  1.97746667E-06  4.37348139E-04  2.72222936E-04
 -3.20357404E-04 -1.46094939E-05 -8.03433690E-03  2.05732143E-03  7.83144765E-04
 -5.97673897E-06 -1.32543896E-05  3.76240917E-05 -2.92996830E-05  2.59565603E-05
 -1.51729035E-06 -2.22748439E-06 -1.01309502E-04 -8.75735059E-04 -1.10664938E-05
 -9.74630513E-05 -1.84252395E-06 -1.51794082E-04  9.93142564E-01  4.93397120E-02
 -4.85450651E-04  3.20982802E-04  4.13308151E-05 -1.69022964E-02 -6.63444594E-04
  3.17835378E-03 -3.03887650E-06 -1.48161141E-02 -1.51850605E-03  4.15301521E-03
  1.95321888E-04 -8.55710087E-03 -8.00568050E-03 -9.04013907E-03  9.36107134E-05
 -2.13502184E-05 -9.56217617E-06 -4.93115132E-05  5.86018847E-04  1.20802190E-05
 -3.65844110E-06 -1.04258169E-06 -3.14567887E-03  1.70934678E-05  1.51419246E-03
 -6.05470643E-06  4.22792192E-03  4.57568463E-04 -3.07128747E-03 -7.84651873E-06
  4.17348914E-04 -7.80173875E-05  5.15993343E-04 -3.84072187E-05 -2.81269524E-06
  4.54731727E-06 -1.07210230E-04  4.22205722E-05 -2.04560184E-04 -6.40494325E-05
  3.11474263E-05  2.02841942E-03  7.74872530E-04 -6.41161042E-04 -1.97908166E-04
  8.55920051E-03  2.21555018E-03 -6.63772926E-04 -3.51984858E-04 -3.73523661E-04
 -1.21214762E-04  9.16386639E-05 -3.22647326E-04  1.25592975E-06  5.33608538E-05
  5.78093449E-06 -1.92265151E-03  1.30401053E-04 -5.30235990E-04 -3.92865437E-06
 -1.62700675E-04  9.92701753E-01  5.12343678E-02 -6.83553380E-05  1.42103807E-04
 -7.76147700E-06 -1.76189773E-02  2.87633875E-04 -2.40457227E-03  2.77884015E-05
  4.01625175E-02  9.87692707E-04  7.68739319E-03 -1.72921052E-04 -9.68639783E-03
 -9.71970186E-03 -9.32034410E-03 -2.48140789E-07  2.98995137E-06  7.39718665E-06
  3.93931741E-03 -9.92011366E-06  6.22572460E-05  6.73084670E-05 -2.01814442E-06
  4.15462614E-03 -1.60696665E-03 -3.85264616E-04  1.92265364E-05 -1.85476287E-02
  4.66790466E-03  1.41795421E-03 -2.38804529E-05 -2.98761720E-04 -2.11316749E-04
 -6.23563269E-05 -1.78126220E-04  3.88078813E-06  2.02579574E-06 -1.35587016E-04
  1.07700484E-03 -1.32957881E-04 -1.76219531E-04 -1.28328435E-04 -4.20977021E-04
 -2.80290527E-03 -2.59030121E-04 -1.86171458E-04  7.07832020E-05 -2.41450103E-06
  3.19098502E-03  3.57666298E-03 -6.79944076E-04 -1.96491432E-06 -2.32970927E-02
 -4.88764492E-03  3.19814920E-03  2.08609335E-05 -2.58587868E-04 -2.18374389E-04
 -1.70739863E-05  1.52470608E-04  7.53546823E-07  3.42231518E-06  1.03233872E-05
 -2.17918506E-07  2.96333320E-05  9.17981690E-06 -8.11394457E-07 -4.20596575E-04
 -5.29285675E-04 -1.31824109E-04  3.44828692E-06  8.32779788E-04  1.22558081E-04
 -4.34905296E-05 -9.90423802E-06  7.61077396E-05  1.33770910E-04 -7.33592004E-05
  5.19816208E-05  2.69464307E-07 -6.84348516E-07 -6.15088123E-06 -1.21713357E-04
 -1.42199958E-05 -3.22681858E-05  5.54019480E-06  7.47953505E-04  3.67323767E-04
  6.88206219E-04 -5.88677188E-05  4.00770519E-03  1.03788677E-03 -5.32035263E-04
 -6.67515840E-05  9.87511150E-05  5.99443150E-05 -8.29211723E-05  2.31544758E-05
 -9.76978393E-07 -1.08212703E-05  6.98932205E-05 -3.83288244E-04 -8.74779239E-05
  6.79505485E-05 -1.30098054E-04 -1.71768819E-04 -4.14673343E-03 -3.73624949E-04
 -2.15849408E-04 -1.46585141E-04  3.48221826E-06  4.30390466E-03  3.08635613E-03
  1.15475316E-03 -2.43223956E-05  1.11837686E-02  2.12993297E-03  1.90618298E-03
 -4.99806757E-05 -2.80989602E-04 -9.48444644E-05 -7.43530081E-05 -1.08490134E-04