 Entering Gaussian System, Link 0=g03
 Initial command:
 /opt/gaussian/g03_D1_amd64/g03/l1.exe /home/toon/unief/research/code/work/tamkin/examples/009_ethane_rotor/scan/Gau-16221.inp -scrdir=/home/toon/unief/research/code/work/tamkin/examples/009_ethane_rotor/scan/
 Entering Link 1 = /opt/gaussian/g03_D1_amd64/g03/l1.exe PID=     16223.
  
 Copyright (c) 1988,1990,1992,1993,1995,1998,2003,2004, Gaussian, Inc.
                  All Rights Reserved.
  
 This is the Gaussian(R) 03 program.  It is based on the
 the Gaussian(R) 98 system (copyright 1998, Gaussian, Inc.),
 the Gaussian(R) 94 system (copyright 1995, Gaussian, Inc.),
 the Gaussian 92(TM) system (copyright 1992, Gaussian, Inc.),
 the Gaussian 90(TM) system (copyright 1990, Gaussian, Inc.),
 the Gaussian 88(TM) system (copyright 1988, Gaussian, Inc.),
 the Gaussian 86(TM) system (copyright 1986, Carnegie Mellon
 University), and the Gaussian 82(TM) system (copyright 1983,
 Carnegie Mellon University). Gaussian is a federally registered
 trademark of Gaussian, Inc.
  
 This software contains proprietary and confidential information,
 including trade secrets, belonging to Gaussian, Inc.
  
 This software is provided under written license and may be
 used, copied, transmitted, or stored only in accord with that
 written license.
  
 The following legend is applicable only to US Government
 contracts under FAR:
  
                    RESTRICTED RIGHTS LEGEND
  
 Use, reproduction and disclosure by the US Government is
 subject to restrictions as set forth in subparagraphs (a)
 and (c) of the Commercial Computer Software - Restricted
 Rights clause in FAR 52.227-19.
  
 Gaussian, Inc.
 340 Quinnipiac St., Bldg. 40, Wallingford CT 06492
  
  
 ---------------------------------------------------------------
 Warning -- This program may not be used in any manner that
 competes with the business of Gaussian, Inc. or will provide
 assistance to any competitor of Gaussian, Inc.  The licensee
 of this program is prohibited from giving any competitor of
 Gaussian, Inc. access to this program.  By using this program,
 the user acknowledges that Gaussian, Inc. is engaged in the
 business of creating and licensing software in the field of
 computational chemistry and represents and warrants to the
 licensee that it is not a competitor of Gaussian, Inc. and that
 it will not use this program in any manner prohibited above.
 ---------------------------------------------------------------
  

 Cite this work as:
 Gaussian 03, Revision D.01,
 M. J. Frisch, G. W. Trucks, H. B. Schlegel, G. E. Scuseria, 
 M. A. Robb, J. R. Cheeseman, J. A. Montgomery, Jr., T. Vreven, 
 K. N. Kudin, J. C. Burant, J. M. Millam, S. S. Iyengar, J. Tomasi, 
 V. Barone, B. Mennucci, M. Cossi, G. Scalmani, N. Rega, 
 G. A. Petersson, H. Nakatsuji, M. Hada, M. Ehara, K. Toyota, 
 R. Fukuda, J. Hasegawa, M. Ishida, T. Nakajima, Y. Honda, O. Kitao, 
 H. Nakai, M. Klene, X. Li, J. E. Knox, H. P. Hratchian, J. B. Cross, 
 V. Bakken, C. Adamo, J. Jaramillo, R. Gomperts, R. E. Stratmann, 
 O. Yazyev, A. J. Austin, R. Cammi, C. Pomelli, J. W. Ochterski, 
 P. Y. Ayala, K. Morokuma, G. A. Voth, P. Salvador, J. J. Dannenberg, 
 V. G. Zakrzewski, S. Dapprich, A. D. Daniels, M. C. Strain, 
 O. Farkas, D. K. Malick, A. D. Rabuck, K. Raghavachari, 
 J. B. Foresman, J. V. Ortiz, Q. Cui, A. G. Baboul, S. Clifford, 
 J. Cioslowski, B. B. Stefanov, G. Liu, A. Liashenko, P. Piskorz, 
 I. Komaromi, R. L. Martin, D. J. Fox, T. Keith, M. A. Al-Laham, 
 C. Y. Peng, A. Nanayakkara, M. Challacombe, P. M. W. Gill, 
 B. Johnson, W. Chen, M. W. Wong, C. Gonzalez, and J. A. Pople, 
 Gaussian, Inc., Wallingford CT, 2004.
 
 ******************************************
 Gaussian 03:  AM64L-G03RevD.01 13-Oct-2005
                31-Oct-2009 
 ******************************************
 %chk=gaussian.chk
 %nproc=1
 Will use up to    1 processors via shared memory.
 %mem=500MB
 ----------------------------------------------------------------------
 # HF/3-21G opt(modredundant,tight) int=ultrafine scf(tight) maxdisk=12
 GB NoSymm
 ----------------------------------------------------------------------
 1/7=10,18=120,38=1/1,3;
 2/9=110,15=1,17=6,18=5,40=1/2;
 3/5=5,11=9,16=1,25=1,30=1,75=5/1,2,3;
 4//1;
 5/5=2,32=2,38=5/2;
 6/7=2,8=2,9=2,10=2,28=1/1;
 7/30=1/1,2,3,16;
 1/18=20/3(3);
 2/9=110,15=1/2;
 6/7=2,8=2,9=2,10=2,19=2,28=1/1;
 99//99;
 2/9=110,15=1/2;
 3/5=5,11=9,16=1,25=1,30=1,75=5/1,2,3;
 4/5=5,16=3/1;
 5/5=2,32=2,38=5/2;
 7/30=1/1,2,3,16;
 1/18=20/3(-5);
 2/9=110,15=1/2;
 6/7=2,8=2,9=2,10=2,19=2,28=1/1;
 99/9=1/99;
 --------------------------
 Who cares about the title?
 --------------------------
 Symbolic Z-matrix:
 Charge =  0 Multiplicity = 1
 C                     15.       15.       14.2351 
 C                     15.       15.       15.7649 
 H                     16.04167   15.       13.849 
 H                     13.95833   15.       16.151 
 H                     15.52084   14.09789   16.151 
 H                     15.52084   15.90211   16.151 
 H                     14.47916   14.09789   13.849 
 H                     14.47916   15.90211   13.849 
 
 The following ModRedundant input section has been read:
 D    7    1    2    5 S  30 2.0000                                            

 GradGradGradGradGradGradGradGradGradGradGradGradGradGradGradGradGradGrad
 Berny optimization.
 Initialization pass.
                           ----------------------------
                           !    Initial Parameters    !
                           ! (Angstroms and Degrees)  !
 --------------------------                            --------------------------
 ! Name  Definition              Value          Derivative Info.                !
 --------------------------------------------------------------------------------
 ! R1    R(1,2)                  1.5298         estimate D2E/DX2                !
 ! R2    R(1,3)                  1.1109         estimate D2E/DX2                !
 ! R3    R(1,7)                  1.1109         estimate D2E/DX2                !
 ! R4    R(1,8)                  1.1109         estimate D2E/DX2                !
 ! R5    R(2,4)                  1.1109         estimate D2E/DX2                !
 ! R6    R(2,5)                  1.1109         estimate D2E/DX2                !
 ! R7    R(2,6)                  1.1109         estimate D2E/DX2                !
 ! A1    A(2,1,3)              110.3375         estimate D2E/DX2                !
 ! A2    A(2,1,7)              110.3375         estimate D2E/DX2                !
 ! A3    A(2,1,8)              110.3375         estimate D2E/DX2                !
 ! A4    A(3,1,7)              108.5912         estimate D2E/DX2                !
 ! A5    A(3,1,8)              108.5912         estimate D2E/DX2                !
 ! A6    A(7,1,8)              108.5912         estimate D2E/DX2                !
 ! A7    A(1,2,4)              110.3375         estimate D2E/DX2                !
 ! A8    A(1,2,5)              110.3375         estimate D2E/DX2                !
 ! A9    A(1,2,6)              110.3375         estimate D2E/DX2                !
 ! A10   A(4,2,5)              108.5912         estimate D2E/DX2                !
 ! A11   A(4,2,6)              108.5912         estimate D2E/DX2                !
 ! A12   A(5,2,6)              108.5912         estimate D2E/DX2                !
 ! D1    D(3,1,2,4)            180.0            estimate D2E/DX2                !
 ! D2    D(3,1,2,5)            -60.0            estimate D2E/DX2                !
 ! D3    D(3,1,2,6)             60.0            estimate D2E/DX2                !
 ! D4    D(7,1,2,4)            -60.0            estimate D2E/DX2                !
 ! D5    D(7,1,2,5)             60.0            Scan                            !
 ! D6    D(7,1,2,6)            180.0            estimate D2E/DX2                !
 ! D7    D(8,1,2,4)             60.0            estimate D2E/DX2                !
 ! D8    D(8,1,2,5)            180.0            estimate D2E/DX2                !
 ! D9    D(8,1,2,6)            -60.0            estimate D2E/DX2                !
 --------------------------------------------------------------------------------
 Trust Radius=3.00D-01 FncErr=1.00D-07 GrdErr=1.00D-07
 Number of optimizations in scan=  31
 Number of steps in this run=  38 maximum allowed number of steps= 100.
 GradGradGradGradGradGradGradGradGradGradGradGradGradGradGradGradGradGrad

                          Input orientation:                          
 ---------------------------------------------------------------------
 Center     Atomic     Atomic              Coordinates (Angstroms)
 Number     Number      Type              X           Y           Z
 ---------------------------------------------------------------------
    1          6             0       15.000000   15.000000   14.235103
    2          6             0       15.000000   15.000000   15.764897
    3          1             0       16.041672   15.000000   13.849003
    4          1             0       13.958328   15.000000   16.150997
    5          1             0       15.520836   14.097886   16.150998
    6          1             0       15.520836   15.902114   16.150998
    7          1             0       14.479164   14.097886   13.849002
    8          1             0       14.479164   15.902114   13.849002
 ---------------------------------------------------------------------
                    Distance matrix (angstroms):
                    1          2          3          4          5
     1  C    0.000000
     2  C    1.529793   0.000000
     3  H    1.110925   2.180764   0.000000
     4  H    2.180764   1.110925   3.104754   0.000000
     5  H    2.180764   1.110925   2.526709   1.804228   0.000000
     6  H    2.180764   1.110925   2.526709   1.804228   1.804228
     7  H    1.110925   2.180764   1.804228   2.526709   2.526709
     8  H    1.110925   2.180764   1.804228   2.526709   3.104754
                    6          7          8
     6  H    0.000000
     7  H    3.104754   0.000000
     8  H    2.526709   1.804228   0.000000
 Symmetry turned off by external request.
 Stoichiometry    C2H6
 Framework group  S6[C3(C.C),X(H6)]
 Deg. of freedom     3
 Full point group                 S6
 Rotational constants (GHZ):     77.0227766     19.9492081     19.9492079
 Standard basis: 3-21G (6D, 7F)
 Integral buffers will be    131072 words long.
 Raffenetti 1 integral format.
 Two-electron integral symmetry is turned off.
    30 basis functions,    48 primitive gaussians,    30 cartesian basis functions
     9 alpha electrons        9 beta electrons
       nuclear repulsion energy        41.8644902018 Hartrees.
 NAtoms=    8 NActive=    8 NUniq=    8 SFac= 7.50D-01 NAtFMM=   80 NAOKFM=F Big=F
 One-electron integrals computed using PRISM.
 NBasis=    30 RedAO= T  NBF=    30
 NBsUse=    30 1.00D-06 NBFU=    30
 Harris functional with IExCor=  205 diagonalized for initial guess.
 ExpMin= 1.83D-01 ExpMax= 1.72D+02 ExpMxC= 1.72D+02 IAcc=3 IRadAn=         5 AccDes= 0.00D+00
 HarFok:  IExCor= 205 AccDes= 0.00D+00 IRadAn=         5 IDoV=1
 ScaDFX=  1.000000  1.000000  1.000000  1.000000
 Requested convergence on RMS density matrix=1.00D-08 within 128 cycles.
 Requested convergence on MAX density matrix=1.00D-06.
 Requested convergence on             energy=1.00D-06.
 No special actions if energy rises.
 Keep R1 integrals in memory in canonical form, NReq=      943828.
 SCF Done:  E(RHF) =  -78.7909497078     A.U. after    9 cycles
             Convg  =    0.9168D-09             -V/T =  2.0044
             S**2   =   0.0000

 **********************************************************************

            Population analysis using the SCF density.

 **********************************************************************

 Alpha  occ. eigenvalues --  -11.16138 -11.16111  -1.01665  -0.83247  -0.59540
 Alpha  occ. eigenvalues --   -0.59540  -0.50281  -0.47897  -0.47897
 Alpha virt. eigenvalues --    0.27229   0.32944   0.32944   0.33730   0.36406
 Alpha virt. eigenvalues --    0.36406   0.42621   0.92414   0.92414   0.96766
 Alpha virt. eigenvalues --    1.07535   1.09606   1.09606   1.25661   1.34725
 Alpha virt. eigenvalues --    1.34725   1.35195   1.35195   1.41603   1.92815
 Alpha virt. eigenvalues --    2.29776
          Condensed to atoms (all electrons):
              1          2          3          4          5          6
     1  C    5.354370   0.231268   0.377067  -0.044269  -0.044269  -0.044269
     2  C    0.231268   5.354370  -0.044269   0.377067   0.377067   0.377067
     3  H    0.377067  -0.044269   0.523707   0.002924  -0.001869  -0.001869
     4  H   -0.044269   0.377067   0.002924   0.523707  -0.025185  -0.025185
     5  H   -0.044269   0.377067  -0.001869  -0.025185   0.523707  -0.025185
     6  H   -0.044269   0.377067  -0.001869  -0.025185  -0.025185   0.523707
     7  H    0.377067  -0.044269  -0.025185  -0.001869  -0.001869   0.002924
     8  H    0.377067  -0.044269  -0.025185  -0.001869   0.002924  -0.001869
              7          8
     1  C    0.377067   0.377067
     2  C   -0.044269  -0.044269
     3  H   -0.025185  -0.025185
     4  H   -0.001869  -0.001869
     5  H   -0.001869   0.002924
     6  H    0.002924  -0.001869
     7  H    0.523707  -0.025185
     8  H   -0.025185   0.523707
 Mulliken atomic charges:
              1
     1  C   -0.584032
     2  C   -0.584032
     3  H    0.194677
     4  H    0.194677
     5  H    0.194677
     6  H    0.194677
     7  H    0.194677
     8  H    0.194677
 Sum of Mulliken charges=   0.00000
 Atomic charges with hydrogens summed into heavy atoms:
              1
     1  C    0.000000
     2  C    0.000000
     3  H    0.000000
     4  H    0.000000
     5  H    0.000000
     6  H    0.000000
     7  H    0.000000
     8  H    0.000000
 Sum of Mulliken charges=   0.00000
 Electronic spatial extent (au):  <R**2>= 43499.3748
 Charge=     0.0000 electrons
 Dipole moment (field-independent basis, Debye):
    X=     0.0000    Y=     0.0000    Z=     0.0000  Tot=     0.0000
 Quadrupole moment (field-independent basis, Debye-Ang):
   XX=   -15.1037   YY=   -15.1037   ZZ=   -15.8333
   XY=     0.0000   XZ=     0.0000   YZ=     0.0000
 Traceless Quadrupole moment (field-independent basis, Debye-Ang):
   XX=     0.2432   YY=     0.2432   ZZ=    -0.4864
   XY=     0.0000   XZ=     0.0000   YZ=     0.0000
 Octapole moment (field-independent basis, Debye-Ang**2):
  XXX=  -679.6661  YYY=  -679.6661  ZZZ=  -712.4979  XYY=  -226.5554
  XXY=  -226.5554  XXZ=  -226.5554  XZZ=  -237.4993  YZZ=  -237.4993
  YYZ=  -226.5554  XYZ=     0.0000
 Hexadecapole moment (field-independent basis, Debye-Ang**3):
 XXXX=-20418.8495 YYYY=-20418.8488 ZZZZ=-21468.8896 XXXY=-10194.9915
 XXXZ=-10196.5498 YYYX=-10194.9912 YYYZ=-10194.9912 ZZZX=-10687.4685
 ZZZY=-10687.4687 XXYY= -6806.2831 XXZZ= -6979.9712 YYZZ= -6979.9713
 XXYZ= -3398.3304 YYXZ= -3396.7720 ZZXY= -3562.4894
 N-N= 4.186449020176D+01 E-N=-2.661136227935D+02  KE= 7.844908463100D+01
 -------------------------------------------------------------------
 Center     Atomic                   Forces (Hartrees/Bohr)
 Number     Number              X              Y              Z
 -------------------------------------------------------------------
    1          6           0.000000017    0.000000000   -0.019235414
    2          6          -0.000000017    0.000000000    0.019235414
    3          1          -0.017615277    0.000000000    0.003996584
    4          1           0.017615277    0.000000000   -0.003996584
    5          1          -0.008807638    0.015255291   -0.003996602
    6          1          -0.008807638   -0.015255291   -0.003996602
    7          1           0.008807638    0.015255291    0.003996602
    8          1           0.008807638   -0.015255291    0.003996602
 -------------------------------------------------------------------
 Cartesian Forces:  Max     0.019235414 RMS     0.010601943

 GradGradGradGradGradGradGradGradGradGradGradGradGradGradGradGradGradGrad
 Berny optimization.
 Internal  Forces:  Max     0.017906198 RMS     0.008553489
 Search for a local minimum.
 Step number   1 out of a maximum of  38 on scan point     1 out of    31
 All quantities printed in internal units (Hartrees-Bohrs-Radians)
 Second derivative matrix not updated -- first step.
     Eigenvalues ---    0.01818   0.05649   0.05649   0.05649   0.16000
     Eigenvalues ---    0.16000   0.16000   0.16000   0.16000   0.16000
     Eigenvalues ---    0.29443   0.32502   0.32502   0.32502   0.32502
     Eigenvalues ---    0.32502   0.325021000.000001000.000001000.00000
     Eigenvalues --- 1000.000001000.000001000.000001000.000001000.00000
     Eigenvalues --- 1000.000001000.000001000.00000
 RFO step:  Lambda=-6.41308114D-03.
 Linear search not attempted -- first point.
 Iteration  1 RMS(Cart)=  0.03024501 RMS(Int)=  0.00035130
 Iteration  2 RMS(Cart)=  0.00046206 RMS(Int)=  0.00006750
 Iteration  3 RMS(Cart)=  0.00000011 RMS(Int)=  0.00006750
 Iteration  1 RMS(Cart)=  0.00000000 RMS(Int)=  0.00000000
 Variable       Old X    -DE/DX   Delta X   Delta X   Delta X     New X
                                 (Linear)    (Quad)   (Total)
    R1        2.89089   0.00725   0.00000   0.02408   0.02408   2.91498
    R2        2.09934  -0.01791   0.00000  -0.05403  -0.05403   2.04532
    R3        2.09934  -0.01791   0.00000  -0.05403  -0.05403   2.04532
    R4        2.09934  -0.01791   0.00000  -0.05403  -0.05403   2.04532
    R5        2.09934  -0.01791   0.00000  -0.05403  -0.05403   2.04532
    R6        2.09934  -0.01791   0.00000  -0.05403  -0.05403   2.04532
    R7        2.09934  -0.01791   0.00000  -0.05403  -0.05403   2.04532
    A1        1.92575   0.00242   0.00000   0.01451   0.01441   1.94016
    A2        1.92575   0.00242   0.00000   0.01451   0.01441   1.94016
    A3        1.92575   0.00242   0.00000   0.01451   0.01441   1.94016
    A4        1.89527  -0.00249   0.00000  -0.01497  -0.01507   1.88020
    A5        1.89527  -0.00249   0.00000  -0.01497  -0.01507   1.88020
    A6        1.89527  -0.00249   0.00000  -0.01497  -0.01507   1.88020
    A7        1.92575   0.00242   0.00000   0.01451   0.01441   1.94016
    A8        1.92575   0.00242   0.00000   0.01451   0.01441   1.94016
    A9        1.92575   0.00242   0.00000   0.01451   0.01441   1.94016
   A10        1.89527  -0.00249   0.00000  -0.01497  -0.01507   1.88020
   A11        1.89527  -0.00249   0.00000  -0.01497  -0.01507   1.88020
   A12        1.89527  -0.00249   0.00000  -0.01497  -0.01507   1.88020
    D1        3.14159   0.00000   0.00000   0.00000   0.00000   3.14159
    D2       -1.04720   0.00000   0.00000   0.00000   0.00000  -1.04720
    D3        1.04720   0.00000   0.00000   0.00000   0.00000   1.04720
    D4       -1.04720   0.00000   0.00000   0.00000   0.00000  -1.04720
    D5        1.04720   0.00000   0.00000   0.00000   0.00000   1.04720
    D6        3.14159   0.00000   0.00000   0.00000   0.00000   3.14159
    D7        1.04720   0.00000   0.00000   0.00000   0.00000   1.04720
    D8        3.14159   0.00000   0.00000   0.00000   0.00000   3.14159
    D9       -1.04720   0.00000   0.00000   0.00000   0.00000  -1.04720
         Item               Value     Threshold  Converged?
 Maximum Force            0.017906     0.000015     NO 
 RMS     Force            0.008710     0.000010     NO 
 Maximum Displacement     0.061099     0.000060     NO 
 RMS     Displacement     0.030054     0.000040     NO 
 Predicted change in Energy=-3.272911D-03
 GradGradGradGradGradGradGradGradGradGradGradGradGradGradGradGradGradGrad

                          Input orientation:                          
 ---------------------------------------------------------------------
 Center     Atomic     Atomic              Coordinates (Angstroms)
 Number     Number      Type              X           Y           Z
 ---------------------------------------------------------------------
    1          6             0       15.000000   15.000000   14.228731
    2          6             0       15.000000   15.000000   15.771269
    3          1             0       16.009339   15.000000   13.837983
    4          1             0       13.990661   15.000000   16.162017
    5          1             0       15.504669   14.125887   16.162017
    6          1             0       15.504669   15.874113   16.162017
    7          1             0       14.495331   14.125887   13.837983
    8          1             0       14.495331   15.874113   13.837983
 ---------------------------------------------------------------------
                    Distance matrix (angstroms):
                    1          2          3          4          5
     1  C    0.000000
     2  C    1.542538   0.000000
     3  H    1.082335   2.180908   0.000000
     4  H    2.180908   1.082335   3.078343   0.000000
     5  H    2.180908   1.082335   2.533752   1.748227   0.000000
     6  H    2.180908   1.082335   2.533752   1.748227   1.748227
     7  H    1.082335   2.180908   1.748227   2.533752   2.533752
     8  H    1.082335   2.180908   1.748227   2.533752   3.078343
                    6          7          8
     6  H    0.000000
     7  H    3.078343   0.000000
     8  H    2.533752   1.748227   0.000000
 Symmetry turned off by external request.
 This structure is nearly, but not quite of a higher symmetry.
 Consider Symm=Loose if the higher symmetry is desired.
 Stoichiometry    C2H6
 Framework group  C1[X(C2H6)]
 Deg. of freedom    18
 Full point group                 C1
 Rotational constants (GHZ):     82.0363806     19.8018091     19.8018090
 Standard basis: 3-21G (6D, 7F)
 Integral buffers will be    131072 words long.
 Raffenetti 1 integral format.
 Two-electron integral symmetry is turned off.
    30 basis functions,    48 primitive gaussians,    30 cartesian basis functions
     9 alpha electrons        9 beta electrons
       nuclear repulsion energy        42.2712459668 Hartrees.
 NAtoms=    8 NActive=    8 NUniq=    8 SFac= 7.50D-01 NAtFMM=   80 NAOKFM=F Big=F
 One-electron integrals computed using PRISM.
 NBasis=    30 RedAO= T  NBF=    30
 NBsUse=    30 1.00D-06 NBFU=    30
 Initial guess read from the read-write file:
 Harris functional with IExCor=  205 diagonalized for initial guess.
 ExpMin= 1.83D-01 ExpMax= 1.72D+02 ExpMxC= 1.72D+02 IAcc=3 IRadAn=         5 AccDes= 0.00D+00
 HarFok:  IExCor= 205 AccDes= 0.00D+00 IRadAn=         5 IDoV=1
 ScaDFX=  1.000000  1.000000  1.000000  1.000000
 Requested convergence on RMS density matrix=1.00D-08 within 128 cycles.
 Requested convergence on MAX density matrix=1.00D-06.
 Requested convergence on             energy=1.00D-06.
 No special actions if energy rises.
 Keep R1 integrals in memory in canonical form, NReq=      943828.
 SCF Done:  E(RHF) =  -78.7938866795     A.U. after    8 cycles
             Convg  =    0.2043D-08             -V/T =  2.0017
             S**2   =   0.0000
 -------------------------------------------------------------------
 Center     Atomic                   Forces (Hartrees/Bohr)
 Number     Number              X              Y              Z
 -------------------------------------------------------------------
    1          6           0.000000004   -0.000000001   -0.000228941
    2          6          -0.000000004   -0.000000001    0.000228941
    3          1           0.001777771    0.000000001    0.000577973
    4          1          -0.001777771    0.000000001   -0.000577973
    5          1           0.000888890   -0.001539596   -0.000577967
    6          1           0.000888888    0.001539596   -0.000577967
    7          1          -0.000888890   -0.001539596    0.000577967
    8          1          -0.000888888    0.001539596    0.000577967
 -------------------------------------------------------------------
 Cartesian Forces:  Max     0.001777771 RMS     0.000937016

 GradGradGradGradGradGradGradGradGradGradGradGradGradGradGradGradGradGrad
 Berny optimization.
 Internal  Forces:  Max     0.001504966 RMS     0.001057964
 Search for a local minimum.
 Step number   2 out of a maximum of  38 on scan point     1 out of    31
 All quantities printed in internal units (Hartrees-Bohrs-Radians)
 Update second derivatives using D2CorX and points  1  2
 Trust test= 8.97D-01 RLast= 1.44D-01 DXMaxT set to 4.24D-01
     Eigenvalues ---    0.01762   0.05497   0.05497   0.05497   0.16000
     Eigenvalues ---    0.16000   0.16000   0.16000   0.16000   0.16707
     Eigenvalues ---    0.29533   0.32502   0.32502   0.32502   0.32502
     Eigenvalues ---    0.32502   0.352121000.000001000.000001000.00000
     Eigenvalues --- 1000.000001000.000001000.000001000.000001000.00000
     Eigenvalues --- 1000.000001000.000001000.00000
 RFO step:  Lambda=-5.36147356D-05.
 Quartic linear search produced a step of -0.09380.
 Iteration  1 RMS(Cart)=  0.00675554 RMS(Int)=  0.00002590
 Iteration  2 RMS(Cart)=  0.00003131 RMS(Int)=  0.00000546
 Iteration  3 RMS(Cart)=  0.00000000 RMS(Int)=  0.00000546
 Iteration  1 RMS(Cart)=  0.00000000 RMS(Int)=  0.00000000
 Variable       Old X    -DE/DX   Delta X   Delta X   Delta X     New X
                                 (Linear)    (Quad)   (Total)
    R1        2.91498  -0.00150  -0.00226  -0.00193  -0.00419   2.91078
    R2        2.04532   0.00145   0.00507  -0.00197   0.00310   2.04842
    R3        2.04532   0.00145   0.00507  -0.00197   0.00310   2.04842
    R4        2.04532   0.00145   0.00507  -0.00197   0.00310   2.04842
    R5        2.04532   0.00145   0.00507  -0.00197   0.00310   2.04842
    R6        2.04532   0.00145   0.00507  -0.00197   0.00310   2.04842
    R7        2.04532   0.00145   0.00507  -0.00197   0.00310   2.04842
    A1        1.94016  -0.00114  -0.00135  -0.00472  -0.00608   1.93408
    A2        1.94016  -0.00114  -0.00135  -0.00472  -0.00608   1.93408
    A3        1.94016  -0.00114  -0.00135  -0.00472  -0.00608   1.93408
    A4        1.88020   0.00121   0.00141   0.00501   0.00641   1.88661
    A5        1.88020   0.00121   0.00141   0.00501   0.00641   1.88661
    A6        1.88020   0.00121   0.00141   0.00501   0.00641   1.88661
    A7        1.94016  -0.00114  -0.00135  -0.00472  -0.00608   1.93408
    A8        1.94016  -0.00114  -0.00135  -0.00472  -0.00608   1.93408
    A9        1.94016  -0.00114  -0.00135  -0.00472  -0.00608   1.93408
   A10        1.88020   0.00121   0.00141   0.00501   0.00641   1.88661
   A11        1.88020   0.00121   0.00141   0.00501   0.00641   1.88661
   A12        1.88020   0.00121   0.00141   0.00501   0.00641   1.88661
    D1        3.14159   0.00000   0.00000   0.00000   0.00000   3.14159
    D2       -1.04720   0.00000   0.00000   0.00000   0.00000  -1.04720
    D3        1.04720   0.00000   0.00000   0.00000   0.00000   1.04720
    D4       -1.04720   0.00000   0.00000   0.00000   0.00000  -1.04720
    D5        1.04720   0.00000   0.00000   0.00000   0.00000   1.04720
    D6        3.14159   0.00000   0.00000   0.00000   0.00000   3.14159
    D7        1.04720   0.00000   0.00000   0.00000   0.00000   1.04720
    D8        3.14159   0.00000   0.00000   0.00000   0.00000   3.14159
    D9       -1.04720   0.00000   0.00000   0.00000   0.00000  -1.04720
         Item               Value     Threshold  Converged?
 Maximum Force            0.001505     0.000015     NO 
 RMS     Force            0.001077     0.000010     NO 
 Maximum Displacement     0.012605     0.000060     NO 
 RMS     Displacement     0.006778     0.000040     NO 
 Predicted change in Energy=-6.295745D-05
 GradGradGradGradGradGradGradGradGradGradGradGradGradGradGradGradGradGrad

                          Input orientation:                          
 ---------------------------------------------------------------------
 Center     Atomic     Atomic              Coordinates (Angstroms)
 Number     Number      Type              X           Y           Z
 ---------------------------------------------------------------------
    1          6             0       15.000000   15.000000   14.229840
    2          6             0       15.000000   15.000000   15.770160
    3          1             0       16.013230   15.000000   13.844654
    4          1             0       13.986770   15.000000   16.155346
    5          1             0       15.506615   14.122517   16.155347
    6          1             0       15.506615   15.877483   16.155347
    7          1             0       14.493385   14.122517   13.844653
    8          1             0       14.493385   15.877483   13.844653
 ---------------------------------------------------------------------
                    Distance matrix (angstroms):
                    1          2          3          4          5
     1  C    0.000000
     2  C    1.540321   0.000000
     3  H    1.083975   2.175824   0.000000
     4  H    2.175824   1.083975   3.073409   0.000000
     5  H    2.175824   1.083975   2.523081   1.754965   0.000000
     6  H    2.175824   1.083975   2.523081   1.754965   1.754965
     7  H    1.083975   2.175824   1.754965   2.523081   2.523081
     8  H    1.083975   2.175824   1.754965   2.523081   3.073409
                    6          7          8
     6  H    0.000000
     7  H    3.073409   0.000000
     8  H    2.523081   1.754965   0.000000
 Symmetry turned off by external request.
 This structure is nearly, but not quite of a higher symmetry.
 Consider Symm=Loose if the higher symmetry is desired.
 Stoichiometry    C2H6
 Framework group  C1[X(C2H6)]
 Deg. of freedom    18
 Full point group                 C1
 Rotational constants (GHZ):     81.4076083     19.8880751     19.8880751
 Standard basis: 3-21G (6D, 7F)
 Integral buffers will be    131072 words long.
 Raffenetti 1 integral format.
 Two-electron integral symmetry is turned off.
    30 basis functions,    48 primitive gaussians,    30 cartesian basis functions
     9 alpha electrons        9 beta electrons
       nuclear repulsion energy        42.2819588854 Hartrees.
 NAtoms=    8 NActive=    8 NUniq=    8 SFac= 7.50D-01 NAtFMM=   80 NAOKFM=F Big=F
 One-electron integrals computed using PRISM.
 NBasis=    30 RedAO= T  NBF=    30
 NBsUse=    30 1.00D-06 NBFU=    30
 Initial guess read from the read-write file:
 Requested convergence on RMS density matrix=1.00D-08 within 128 cycles.
 Requested convergence on MAX density matrix=1.00D-06.
 Requested convergence on             energy=1.00D-06.
 No special actions if energy rises.
 Keep R1 integrals in memory in canonical form, NReq=      943828.
 SCF Done:  E(RHF) =  -78.7939458360     A.U. after    7 cycles
             Convg  =    0.2260D-08             -V/T =  2.0018
             S**2   =   0.0000
 -------------------------------------------------------------------
 Center     Atomic                   Forces (Hartrees/Bohr)
 Number     Number              X              Y              Z
 -------------------------------------------------------------------
    1          6           0.000000001   -0.000000001   -0.000885088
    2          6          -0.000000001   -0.000000001    0.000885088
    3          1           0.000121548    0.000000000   -0.000060916
    4          1          -0.000121548    0.000000000    0.000060916
    5          1           0.000060775   -0.000105264    0.000060916
    6          1           0.000060774    0.000105264    0.000060916
    7          1          -0.000060775   -0.000105264   -0.000060916
    8          1          -0.000060774    0.000105264   -0.000060916
 -------------------------------------------------------------------
 Cartesian Forces:  Max     0.000885088 RMS     0.000264392

 GradGradGradGradGradGradGradGradGradGradGradGradGradGradGradGradGradGrad
 Berny optimization.
 Internal  Forces:  Max     0.001067836 RMS     0.000211484
 Search for a local minimum.
 Step number   3 out of a maximum of  38 on scan point     1 out of    31
 All quantities printed in internal units (Hartrees-Bohrs-Radians)
 Update second derivatives using D2CorX and points  1  2  3
 Trust test= 9.40D-01 RLast= 2.33D-02 DXMaxT set to 4.24D-01
     Eigenvalues ---    0.01785   0.05561   0.05561   0.05561   0.16000
     Eigenvalues ---    0.16000   0.16000   0.16000   0.16000   0.16058
     Eigenvalues ---    0.30754   0.32502   0.32502   0.32502   0.32502
     Eigenvalues ---    0.32502   0.378151000.000001000.000001000.00000
     Eigenvalues --- 1000.000001000.000001000.000001000.000001000.00000
     Eigenvalues --- 1000.000001000.000001000.00000
 RFO step:  Lambda=-3.93469839D-06.
 Quartic linear search produced a step of -0.02398.
 Iteration  1 RMS(Cart)=  0.00092399 RMS(Int)=  0.00000028
 Iteration  2 RMS(Cart)=  0.00000003 RMS(Int)=  0.00000028
 Iteration  1 RMS(Cart)=  0.00000000 RMS(Int)=  0.00000000
 Variable       Old X    -DE/DX   Delta X   Delta X   Delta X     New X
                                 (Linear)    (Quad)   (Total)
    R1        2.91078   0.00107   0.00010   0.00328   0.00338   2.91417
    R2        2.04842   0.00014  -0.00007   0.00058   0.00051   2.04893
    R3        2.04842   0.00014  -0.00007   0.00058   0.00051   2.04893
    R4        2.04842   0.00014  -0.00007   0.00058   0.00051   2.04893
    R5        2.04842   0.00014  -0.00007   0.00058   0.00051   2.04893
    R6        2.04842   0.00014  -0.00007   0.00058   0.00051   2.04893
    R7        2.04842   0.00014  -0.00007   0.00058   0.00051   2.04893
    A1        1.93408   0.00001   0.00015  -0.00026  -0.00012   1.93396
    A2        1.93408   0.00001   0.00015  -0.00026  -0.00012   1.93396
    A3        1.93408   0.00001   0.00015  -0.00026  -0.00012   1.93396
    A4        1.88661  -0.00001  -0.00015   0.00028   0.00012   1.88674
    A5        1.88661  -0.00001  -0.00015   0.00028   0.00012   1.88674
    A6        1.88661  -0.00001  -0.00015   0.00028   0.00012   1.88674
    A7        1.93408   0.00001   0.00015  -0.00026  -0.00012   1.93396
    A8        1.93408   0.00001   0.00015  -0.00026  -0.00012   1.93396
    A9        1.93408   0.00001   0.00015  -0.00026  -0.00012   1.93396
   A10        1.88661  -0.00001  -0.00015   0.00028   0.00012   1.88674
   A11        1.88661  -0.00001  -0.00015   0.00028   0.00012   1.88674
   A12        1.88661  -0.00001  -0.00015   0.00028   0.00012   1.88674
    D1        3.14159   0.00000   0.00000   0.00000   0.00000   3.14159
    D2       -1.04720   0.00000   0.00000   0.00000   0.00000  -1.04720
    D3        1.04720   0.00000   0.00000   0.00000   0.00000   1.04720
    D4       -1.04720   0.00000   0.00000   0.00000   0.00000  -1.04720
    D5        1.04720   0.00000   0.00000   0.00000   0.00000   1.04720
    D6        3.14159   0.00000   0.00000   0.00000   0.00000   3.14159
    D7        1.04720   0.00000   0.00000   0.00000   0.00000   1.04720
    D8        3.14159   0.00000   0.00000   0.00000   0.00000   3.14159
    D9       -1.04720   0.00000   0.00000   0.00000   0.00000  -1.04720
         Item               Value     Threshold  Converged?
 Maximum Force            0.001068     0.000015     NO 
 RMS     Force            0.000215     0.000010     NO 
 Maximum Displacement     0.001691     0.000060     NO 
 RMS     Displacement     0.000924     0.000040     NO 
 Predicted change in Energy=-2.002930D-06
 GradGradGradGradGradGradGradGradGradGradGradGradGradGradGradGradGradGrad

                          Input orientation:                          
 ---------------------------------------------------------------------
 Center     Atomic     Atomic              Coordinates (Angstroms)
 Number     Number      Type              X           Y           Z
 ---------------------------------------------------------------------
    1          6             0       15.000000   15.000000   14.228945
    2          6             0       15.000000   15.000000   15.771055
    3          1             0       16.013527   15.000000   13.843782
    4          1             0       13.986473   15.000000   16.156218
    5          1             0       15.506763   14.122260   16.156219
    6          1             0       15.506763   15.877740   16.156219
    7          1             0       14.493237   14.122260   13.843781
    8          1             0       14.493237   15.877740   13.843781
 ---------------------------------------------------------------------
                    Distance matrix (angstroms):
                    1          2          3          4          5
     1  C    0.000000
     2  C    1.542111   0.000000
     3  H    1.084245   2.177527   0.000000
     4  H    2.177527   1.084245   3.075112   0.000000
     5  H    2.177527   1.084245   2.524797   1.755480   0.000000
     6  H    2.177527   1.084245   2.524797   1.755480   1.755480
     7  H    1.084245   2.177527   1.755480   2.524797   2.524797
     8  H    1.084245   2.177527   1.755480   2.524797   3.075112
                    6          7          8
     6  H    0.000000
     7  H    3.075112   0.000000
     8  H    2.524797   1.755480   0.000000
 Symmetry turned off by external request.
 This structure is nearly, but not quite of a higher symmetry.
 Consider Symm=Loose if the higher symmetry is desired.
 Stoichiometry    C2H6
 Framework group  C1[X(C2H6)]
 Deg. of freedom    18
 Full point group                 C1
 Rotational constants (GHZ):     81.3598671     19.8512681     19.8512681
 Standard basis: 3-21G (6D, 7F)
 Integral buffers will be    131072 words long.
 Raffenetti 1 integral format.
 Two-electron integral symmetry is turned off.
    30 basis functions,    48 primitive gaussians,    30 cartesian basis functions
     9 alpha electrons        9 beta electrons
       nuclear repulsion energy        42.2547157324 Hartrees.
 NAtoms=    8 NActive=    8 NUniq=    8 SFac= 7.50D-01 NAtFMM=   80 NAOKFM=F Big=F
 One-electron integrals computed using PRISM.
 NBasis=    30 RedAO= T  NBF=    30
 NBsUse=    30 1.00D-06 NBFU=    30
 Initial guess read from the read-write file:
 Requested convergence on RMS density matrix=1.00D-08 within 128 cycles.
 Requested convergence on MAX density matrix=1.00D-06.
 Requested convergence on             energy=1.00D-06.
 No special actions if energy rises.
 Keep R1 integrals in memory in canonical form, NReq=      943828.
 SCF Done:  E(RHF) =  -78.7939479068     A.U. after    6 cycles
             Convg  =    0.6508D-08             -V/T =  2.0019
             S**2   =   0.0000
 -------------------------------------------------------------------
 Center     Atomic                   Forces (Hartrees/Bohr)
 Number     Number              X              Y              Z
 -------------------------------------------------------------------
    1          6           0.000000001    0.000000000   -0.000262432
    2          6          -0.000000001    0.000000000    0.000262432
    3          1          -0.000065546    0.000000000    0.000053216
    4          1           0.000065546    0.000000000   -0.000053216
    5          1          -0.000032772    0.000056765   -0.000053216
    6          1          -0.000032773   -0.000056765   -0.000053216
    7          1           0.000032772    0.000056765    0.000053216
    8          1           0.000032773   -0.000056765    0.000053216
 -------------------------------------------------------------------
 Cartesian Forces:  Max     0.000262432 RMS     0.000086725

 GradGradGradGradGradGradGradGradGradGradGradGradGradGradGradGradGradGrad
 Berny optimization.
 Internal  Forces:  Max     0.000102783 RMS     0.000045331
 Search for a local minimum.
 Step number   4 out of a maximum of  38 on scan point     1 out of    31
 All quantities printed in internal units (Hartrees-Bohrs-Radians)
 Update second derivatives using D2CorX and points  1  2  3  4
 Trust test= 1.03D+00 RLast= 3.63D-03 DXMaxT set to 4.24D-01
     Eigenvalues ---    0.01786   0.05562   0.05562   0.05562   0.13864
     Eigenvalues ---    0.16000   0.16000   0.16000   0.16000   0.16000
     Eigenvalues ---    0.32029   0.32502   0.32502   0.32502   0.32502
     Eigenvalues ---    0.32502   0.390301000.000001000.000001000.00000
     Eigenvalues --- 1000.000001000.000001000.000001000.000001000.00000
     Eigenvalues --- 1000.000001000.000001000.00000
 RFO step:  Lambda=-2.35938972D-07.
 Quartic linear search produced a step of  0.03657.
 Iteration  1 RMS(Cart)=  0.00013416 RMS(Int)=  0.00000003
 Iteration  2 RMS(Cart)=  0.00000002 RMS(Int)=  0.00000002
 Iteration  1 RMS(Cart)=  0.00000000 RMS(Int)=  0.00000000
 Variable       Old X    -DE/DX   Delta X   Delta X   Delta X     New X
                                 (Linear)    (Quad)   (Total)
    R1        2.91417   0.00010   0.00012   0.00044   0.00057   2.91473
    R2        2.04893  -0.00008   0.00002  -0.00024  -0.00023   2.04870
    R3        2.04893  -0.00008   0.00002  -0.00024  -0.00023   2.04870
    R4        2.04893  -0.00008   0.00002  -0.00024  -0.00023   2.04870
    R5        2.04893  -0.00008   0.00002  -0.00024  -0.00023   2.04870
    R6        2.04893  -0.00008   0.00002  -0.00024  -0.00023   2.04870
    R7        2.04893  -0.00008   0.00002  -0.00024  -0.00023   2.04870
    A1        1.93396  -0.00003   0.00000  -0.00022  -0.00023   1.93373
    A2        1.93396  -0.00003   0.00000  -0.00022  -0.00023   1.93373
    A3        1.93396  -0.00003   0.00000  -0.00022  -0.00023   1.93373
    A4        1.88674   0.00003   0.00000   0.00024   0.00024   1.88698
    A5        1.88674   0.00003   0.00000   0.00024   0.00024   1.88698
    A6        1.88674   0.00003   0.00000   0.00024   0.00024   1.88698
    A7        1.93396  -0.00003   0.00000  -0.00022  -0.00023   1.93373
    A8        1.93396  -0.00003   0.00000  -0.00022  -0.00023   1.93373
    A9        1.93396  -0.00003   0.00000  -0.00022  -0.00023   1.93373
   A10        1.88674   0.00003   0.00000   0.00024   0.00024   1.88698
   A11        1.88674   0.00003   0.00000   0.00024   0.00024   1.88698
   A12        1.88674   0.00003   0.00000   0.00024   0.00024   1.88698
    D1        3.14159   0.00000   0.00000   0.00000   0.00000   3.14159
    D2       -1.04720   0.00000   0.00000   0.00000   0.00000  -1.04720
    D3        1.04720   0.00000   0.00000   0.00000   0.00000   1.04720
    D4       -1.04720   0.00000   0.00000   0.00000   0.00000  -1.04720
    D5        1.04720   0.00000   0.00000   0.00000   0.00000   1.04720
    D6        3.14159   0.00000   0.00000   0.00000   0.00000   3.14159
    D7        1.04720   0.00000   0.00000   0.00000   0.00000   1.04720
    D8        3.14159   0.00000   0.00000   0.00000   0.00000   3.14159
    D9       -1.04720   0.00000   0.00000   0.00000   0.00000  -1.04720
         Item               Value     Threshold  Converged?
 Maximum Force            0.000103     0.000015     NO 
 RMS     Force            0.000046     0.000010     NO 
 Maximum Displacement     0.000283     0.000060     NO 
 RMS     Displacement     0.000134     0.000040     NO 
 Predicted change in Energy=-1.204864D-07
 GradGradGradGradGradGradGradGradGradGradGradGradGradGradGradGradGradGrad

                          Input orientation:                          
 ---------------------------------------------------------------------
 Center     Atomic     Atomic              Coordinates (Angstroms)
 Number     Number      Type              X           Y           Z
 ---------------------------------------------------------------------
    1          6             0       15.000000   15.000000   14.228795
    2          6             0       15.000000   15.000000   15.771205
    3          1             0       16.013504   15.000000   13.843906
    4          1             0       13.986496   15.000000   16.156094
    5          1             0       15.506751   14.122280   16.156094
    6          1             0       15.506752   15.877720   16.156094
    7          1             0       14.493249   14.122280   13.843906
    8          1             0       14.493248   15.877720   13.843906
 ---------------------------------------------------------------------
                    Distance matrix (angstroms):
                    1          2          3          4          5
     1  C    0.000000
     2  C    1.542410   0.000000
     3  H    1.084126   2.177538   0.000000
     4  H    2.177538   1.084126   3.074894   0.000000
     5  H    2.177538   1.084126   2.524560   1.755439   0.000000
     6  H    2.177538   1.084126   2.524560   1.755439   1.755439
     7  H    1.084126   2.177538   1.755439   2.524560   2.524560
     8  H    1.084126   2.177538   1.755439   2.524560   3.074894
                    6          7          8
     6  H    0.000000
     7  H    3.074894   0.000000
     8  H    2.524560   1.755439   0.000000
 Symmetry turned off by external request.
 This structure is nearly, but not quite of a higher symmetry.
 Consider Symm=Loose if the higher symmetry is desired.
 Stoichiometry    C2H6
 Framework group  C1[X(C2H6)]
 Deg. of freedom    18
 Full point group                 C1
 Rotational constants (GHZ):     81.3636440     19.8484185     19.8484185
 Standard basis: 3-21G (6D, 7F)
 Integral buffers will be    131072 words long.
 Raffenetti 1 integral format.
 Two-electron integral symmetry is turned off.
    30 basis functions,    48 primitive gaussians,    30 cartesian basis functions
     9 alpha electrons        9 beta electrons
       nuclear repulsion energy        42.2544040874 Hartrees.
 NAtoms=    8 NActive=    8 NUniq=    8 SFac= 7.50D-01 NAtFMM=   80 NAOKFM=F Big=F
 One-electron integrals computed using PRISM.
 NBasis=    30 RedAO= T  NBF=    30
 NBsUse=    30 1.00D-06 NBFU=    30
 Initial guess read from the read-write file:
 Requested convergence on RMS density matrix=1.00D-08 within 128 cycles.
 Requested convergence on MAX density matrix=1.00D-06.
 Requested convergence on             energy=1.00D-06.
 No special actions if energy rises.
 Keep R1 integrals in memory in canonical form, NReq=      943828.
 SCF Done:  E(RHF) =  -78.7939480304     A.U. after    6 cycles
             Convg  =    0.2237D-08             -V/T =  2.0019
             S**2   =   0.0000
 -------------------------------------------------------------------
 Center     Atomic                   Forces (Hartrees/Bohr)
 Number     Number              X              Y              Z
 -------------------------------------------------------------------
    1          6           0.000000001   -0.000000001   -0.000006529
    2          6          -0.000000001   -0.000000001    0.000006529
    3          1          -0.000002750    0.000000000    0.000001116
    4          1           0.000002750    0.000000000   -0.000001116
    5          1          -0.000001374    0.000002382   -0.000001116
    6          1          -0.000001375   -0.000002381   -0.000001116
    7          1           0.000001374    0.000002382    0.000001116
    8          1           0.000001375   -0.000002381    0.000001116
 -------------------------------------------------------------------
 Cartesian Forces:  Max     0.000006529 RMS     0.000002399

 GradGradGradGradGradGradGradGradGradGradGradGradGradGradGradGradGradGrad
 Berny optimization.
 Internal  Forces:  Max     0.000003181 RMS     0.000001500
 Search for a local minimum.
 Step number   5 out of a maximum of  38 on scan point     1 out of    31
 All quantities printed in internal units (Hartrees-Bohrs-Radians)
 Update second derivatives using D2CorX and points  1  2  3  4  5

 Trust test= 1.03D+00 RLast= 1.13D-03 DXMaxT set to 4.24D-01
     Eigenvalues ---    0.01786   0.05565   0.05565   0.05565   0.13807
     Eigenvalues ---    0.16000   0.16000   0.16000   0.16000   0.16000
     Eigenvalues ---    0.31734   0.32502   0.32502   0.32502   0.32502
     Eigenvalues ---    0.32502   0.381981000.000001000.000001000.00000
     Eigenvalues --- 1000.000001000.000001000.000001000.000001000.00000
     Eigenvalues --- 1000.000001000.000001000.00000
 RFO step:  Lambda= 0.00000000D+00.
 Quartic linear search produced a step of  0.02554.
 Iteration  1 RMS(Cart)=  0.00000330 RMS(Int)=  0.00000000
 Iteration  2 RMS(Cart)=  0.00000000 RMS(Int)=  0.00000000
 Iteration  1 RMS(Cart)=  0.00000000 RMS(Int)=  0.00000000
 Variable       Old X    -DE/DX   Delta X   Delta X   Delta X     New X
                                 (Linear)    (Quad)   (Total)
    R1        2.91473   0.00000   0.00001   0.00000   0.00001   2.91475
    R2        2.04870   0.00000  -0.00001   0.00000  -0.00001   2.04869
    R3        2.04870   0.00000  -0.00001   0.00000  -0.00001   2.04869
    R4        2.04870   0.00000  -0.00001   0.00000  -0.00001   2.04869
    R5        2.04870   0.00000  -0.00001   0.00000  -0.00001   2.04869
    R6        2.04870   0.00000  -0.00001   0.00000  -0.00001   2.04869
    R7        2.04870   0.00000  -0.00001   0.00000  -0.00001   2.04869
    A1        1.93373   0.00000  -0.00001   0.00000   0.00000   1.93373
    A2        1.93373   0.00000  -0.00001   0.00000   0.00000   1.93373
    A3        1.93373   0.00000  -0.00001   0.00000   0.00000   1.93373
    A4        1.88698   0.00000   0.00001   0.00000   0.00000   1.88698
    A5        1.88698   0.00000   0.00001   0.00000   0.00000   1.88698
    A6        1.88698   0.00000   0.00001   0.00000   0.00000   1.88698
    A7        1.93373   0.00000  -0.00001   0.00000   0.00000   1.93373
    A8        1.93373   0.00000  -0.00001   0.00000   0.00000   1.93373
    A9        1.93373   0.00000  -0.00001   0.00000   0.00000   1.93373
   A10        1.88698   0.00000   0.00001   0.00000   0.00000   1.88698
   A11        1.88698   0.00000   0.00001   0.00000   0.00000   1.88698
   A12        1.88698   0.00000   0.00001   0.00000   0.00000   1.88698
    D1        3.14159   0.00000   0.00000   0.00000   0.00000   3.14159
    D2       -1.04720   0.00000   0.00000   0.00000   0.00000  -1.04720
    D3        1.04720   0.00000   0.00000   0.00000   0.00000   1.04720
    D4       -1.04720   0.00000   0.00000   0.00000   0.00000  -1.04720
    D5        1.04720   0.00000   0.00000   0.00000   0.00000   1.04720
    D6        3.14159   0.00000   0.00000   0.00000   0.00000   3.14159
    D7        1.04720   0.00000   0.00000   0.00000   0.00000   1.04720
    D8        3.14159   0.00000   0.00000   0.00000   0.00000   3.14159
    D9       -1.04720   0.00000   0.00000   0.00000   0.00000  -1.04720
         Item               Value     Threshold  Converged?
 Maximum Force            0.000003     0.000015     YES
 RMS     Force            0.000002     0.000010     YES
 Maximum Displacement     0.000007     0.000060     YES
 RMS     Displacement     0.000003     0.000040     YES
 Predicted change in Energy=-9.617958D-11
 Optimization completed.
    -- Stationary point found.
                           ----------------------------
                           !   Optimized Parameters   !
                           ! (Angstroms and Degrees)  !
 --------------------------                            --------------------------
 ! Name  Definition              Value          Derivative Info.                !
 --------------------------------------------------------------------------------
 ! R1    R(1,2)                  1.5424         -DE/DX =    0.0                 !
 ! R2    R(1,3)                  1.0841         -DE/DX =    0.0                 !
 ! R3    R(1,7)                  1.0841         -DE/DX =    0.0                 !
 ! R4    R(1,8)                  1.0841         -DE/DX =    0.0                 !
 ! R5    R(2,4)                  1.0841         -DE/DX =    0.0                 !
 ! R6    R(2,5)                  1.0841         -DE/DX =    0.0                 !
 ! R7    R(2,6)                  1.0841         -DE/DX =    0.0                 !
 ! A1    A(2,1,3)              110.7948         -DE/DX =    0.0                 !
 ! A2    A(2,1,7)              110.7948         -DE/DX =    0.0                 !
 ! A3    A(2,1,8)              110.7948         -DE/DX =    0.0                 !
 ! A4    A(3,1,7)              108.1158         -DE/DX =    0.0                 !
 ! A5    A(3,1,8)              108.1158         -DE/DX =    0.0                 !
 ! A6    A(7,1,8)              108.1158         -DE/DX =    0.0                 !
 ! A7    A(1,2,4)              110.7948         -DE/DX =    0.0                 !
 ! A8    A(1,2,5)              110.7948         -DE/DX =    0.0                 !
 ! A9    A(1,2,6)              110.7948         -DE/DX =    0.0                 !
 ! A10   A(4,2,5)              108.1158         -DE/DX =    0.0                 !
 ! A11   A(4,2,6)              108.1158         -DE/DX =    0.0                 !
 ! A12   A(5,2,6)              108.1158         -DE/DX =    0.0                 !
 ! D1    D(3,1,2,4)            180.0            -DE/DX =    0.0                 !
 ! D2    D(3,1,2,5)            -60.0            -DE/DX =    0.0                 !
 ! D3    D(3,1,2,6)             60.0            -DE/DX =    0.0                 !
 ! D4    D(7,1,2,4)            -60.0            -DE/DX =    0.0                 !
 ! D5    D(7,1,2,5)             60.0            -DE/DX =    0.0                 !
 ! D6    D(7,1,2,6)            180.0            -DE/DX =    0.0                 !
 ! D7    D(8,1,2,4)             60.0            -DE/DX =    0.0                 !
 ! D8    D(8,1,2,5)            180.0            -DE/DX =    0.0                 !
 ! D9    D(8,1,2,6)            -60.0            -DE/DX =    0.0                 !
 --------------------------------------------------------------------------------
 Iteration  1 RMS(Cart)=  0.00288981 RMS(Int)=  0.00507617
 Iteration  2 RMS(Cart)=  0.00002312 RMS(Int)=  0.00507614
 Iteration  3 RMS(Cart)=  0.00000010 RMS(Int)=  0.00507614
 Iteration  1 RMS(Cart)=  0.00171407 RMS(Int)=  0.00300564
 Iteration  2 RMS(Cart)=  0.00101599 RMS(Int)=  0.00334897
 Iteration  3 RMS(Cart)=  0.00060195 RMS(Int)=  0.00381631
 Iteration  4 RMS(Cart)=  0.00035654 RMS(Int)=  0.00415548
 Iteration  5 RMS(Cart)=  0.00021115 RMS(Int)=  0.00437283
 Iteration  6 RMS(Cart)=  0.00012504 RMS(Int)=  0.00450642
 Iteration  7 RMS(Cart)=  0.00007404 RMS(Int)=  0.00458707
 Iteration  8 RMS(Cart)=  0.00004384 RMS(Int)=  0.00463533
 Iteration  9 RMS(Cart)=  0.00002596 RMS(Int)=  0.00466408
 Iteration 10 RMS(Cart)=  0.00001537 RMS(Int)=  0.00468116
 Iteration 11 RMS(Cart)=  0.00000910 RMS(Int)=  0.00469129
 Iteration 12 RMS(Cart)=  0.00000539 RMS(Int)=  0.00469730
 Iteration 13 RMS(Cart)=  0.00000319 RMS(Int)=  0.00470086
 Iteration 14 RMS(Cart)=  0.00000189 RMS(Int)=  0.00470297
 Iteration 15 RMS(Cart)=  0.00000112 RMS(Int)=  0.00470422
 Iteration 16 RMS(Cart)=  0.00000066 RMS(Int)=  0.00470496
 GradGradGradGradGradGradGradGradGradGradGradGradGradGradGradGradGradGrad

                          Input orientation:                          
 ---------------------------------------------------------------------
 Center     Atomic     Atomic              Coordinates (Angstroms)
 Number     Number      Type              X           Y           Z
 ---------------------------------------------------------------------
    1          6             0       15.004129   14.997024   14.228801
    2          6             0       14.995871   14.997024   15.771199
    3          1             0       16.017291   14.998672   13.843030
    4          1             0       13.982709   14.998672   16.156970
    5          1             0       15.515786   14.128293   16.158932
    6          1             0       15.503149   15.876011   16.152475
    7          1             0       14.484214   14.128293   13.841068
    8          1             0       14.496851   15.876011   13.847525
 ---------------------------------------------------------------------
                    Distance matrix (angstroms):
                    1          2          3          4          5
     1  C    0.000000
     2  C    1.542420   0.000000
     3  H    1.084122   2.182003   0.000000
     4  H    2.182003   1.084122   3.081208   0.000000
     5  H    2.177589   1.084132   2.524375   1.762920   0.000000
     6  H    2.173053   1.084122   2.523412   1.755415   1.747776
     7  H    1.084132   2.177589   1.762920   2.524375   2.537053
     8  H    1.084122   2.173053   1.755415   2.523412   3.071702
                    6          7          8
     6  H    0.000000
     7  H    3.071702   0.000000
     8  H    2.515041   1.747776   0.000000
 Symmetry turned off by external request.
 Stoichiometry    C2H6
 Framework group  C2[X(C2H6)]
 Deg. of freedom    10
 Full point group                 C2
 Rotational constants (GHZ):     81.3670736     19.8691899     19.8270390
 Standard basis: 3-21G (6D, 7F)
 Integral buffers will be    131072 words long.
 Raffenetti 1 integral format.
 Two-electron integral symmetry is turned off.
    30 basis functions,    48 primitive gaussians,    30 cartesian basis functions
     9 alpha electrons        9 beta electrons
       nuclear repulsion energy        42.2543989474 Hartrees.
 NAtoms=    8 NActive=    8 NUniq=    8 SFac= 7.50D-01 NAtFMM=   80 NAOKFM=F Big=F
 One-electron integrals computed using PRISM.
 NBasis=    30 RedAO= T  NBF=    30
 NBsUse=    30 1.00D-06 NBFU=    30
 Initial guess read from the read-write file:
 Harris functional with IExCor=  205 diagonalized for initial guess.
 ExpMin= 1.83D-01 ExpMax= 1.72D+02 ExpMxC= 1.72D+02 IAcc=3 IRadAn=         5 AccDes= 0.00D+00
 HarFok:  IExCor= 205 AccDes= 0.00D+00 IRadAn=         5 IDoV=1
 ScaDFX=  1.000000  1.000000  1.000000  1.000000
 Requested convergence on RMS density matrix=1.00D-08 within 128 cycles.
 Requested convergence on MAX density matrix=1.00D-06.
 Requested convergence on             energy=1.00D-06.
 No special actions if energy rises.
 Keep R1 integrals in memory in canonical form, NReq=      943828.
 SCF Done:  E(RHF) =  -78.7938832288     A.U. after    7 cycles
             Convg  =    0.9902D-08             -V/T =  2.0019
             S**2   =   0.0000
 -------------------------------------------------------------------
 Center     Atomic                   Forces (Hartrees/Bohr)
 Number     Number              X              Y              Z
 -------------------------------------------------------------------
    1          6          -0.003119456    0.000967175   -0.000017049
    2          6           0.003119456    0.000967175    0.000017049
    3          1          -0.000324148   -0.000793976    0.000337730
    4          1           0.000324148   -0.000793976   -0.000337730
    5          1          -0.001448268   -0.000863541    0.000113100
    6          1          -0.000514008    0.000690342    0.000214826
    7          1           0.001448268   -0.000863541   -0.000113100
    8          1           0.000514008    0.000690342   -0.000214826
 -------------------------------------------------------------------
 Cartesian Forces:  Max     0.003119456 RMS     0.001123950

 GradGradGradGradGradGradGradGradGradGradGradGradGradGradGradGradGradGrad
 Berny optimization.
 Internal  Forces:  Max     0.001514367 RMS     0.000554108
 Search for a local minimum.
 Step number   1 out of a maximum of  38 on scan point     2 out of    31
 All quantities printed in internal units (Hartrees-Bohrs-Radians)
 Second derivative matrix not updated -- first step.
     Eigenvalues ---    0.01785   0.05499   0.05565   0.05629   0.13808
     Eigenvalues ---    0.16000   0.16000   0.16000   0.16000   0.16000
     Eigenvalues ---    0.31733   0.32502   0.32502   0.32502   0.32502
     Eigenvalues ---    0.32502   0.381981000.000001000.000001000.00000
     Eigenvalues --- 1000.000001000.000001000.000001000.000001000.00000
     Eigenvalues --- 1000.000001000.000001000.00000
 RFO step:  Lambda=-1.09784276D-04.
 Linear search not attempted -- first point.
 Iteration  1 RMS(Cart)=  0.01090776 RMS(Int)=  0.00009533
 Iteration  2 RMS(Cart)=  0.00009471 RMS(Int)=  0.00002389
 Iteration  3 RMS(Cart)=  0.00000001 RMS(Int)=  0.00002389
 Iteration  1 RMS(Cart)=  0.00000088 RMS(Int)=  0.00000153
 Variable       Old X    -DE/DX   Delta X   Delta X   Delta X     New X
                                 (Linear)    (Quad)   (Total)
    R1        2.91475   0.00000   0.00000   0.00006   0.00006   2.91481
    R2        2.04869  -0.00042   0.00000  -0.00131  -0.00131   2.04738
    R3        2.04871   0.00004   0.00000   0.00011   0.00011   2.04882
    R4        2.04869   0.00039   0.00000   0.00121   0.00121   2.04990
    R5        2.04869  -0.00042   0.00000  -0.00131  -0.00131   2.04738
    R6        2.04871   0.00004   0.00000   0.00011   0.00011   2.04882
    R7        2.04869   0.00039   0.00000   0.00121   0.00121   2.04990
    A1        1.93996  -0.00070   0.00000  -0.00745  -0.00746   1.93250
    A2        1.93379   0.00020   0.00000   0.00131   0.00127   1.93505
    A3        1.92749   0.00050   0.00000   0.00609   0.00608   1.93357
    A4        1.89878  -0.00060   0.00000  -0.00936  -0.00939   1.88939
    A5        1.88695   0.00007   0.00000   0.00020   0.00022   1.88717
    A6        1.87498   0.00056   0.00000   0.00953   0.00948   1.88446
    A7        1.93996  -0.00070   0.00000  -0.00745  -0.00746   1.93250
    A8        1.93379   0.00020   0.00000   0.00131   0.00127   1.93505
    A9        1.92749   0.00050   0.00000   0.00609   0.00608   1.93357
   A10        1.89878  -0.00060   0.00000  -0.00936  -0.00939   1.88939
   A11        1.88695   0.00007   0.00000   0.00020   0.00022   1.88717
   A12        1.87498   0.00056   0.00000   0.00953   0.00948   1.88446
    D1        3.13833   0.00068   0.00000   0.03203   0.03200  -3.11285
    D2       -1.03138  -0.00042   0.00000   0.01601   0.01600  -1.01538
    D3        1.04401   0.00072   0.00000   0.03261   0.03261   1.07662
    D4       -1.03138  -0.00042   0.00000   0.01601   0.01600  -1.01538
    D5        1.08210  -0.00151   0.00000   0.00000   0.00000   1.08210
    D6       -3.12570  -0.00037   0.00000   0.01659   0.01661  -3.10909
    D7        1.04401   0.00072   0.00000   0.03261   0.03261   1.07662
    D8       -3.12570  -0.00037   0.00000   0.01659   0.01661  -3.10909
    D9       -1.05031   0.00077   0.00000   0.03319   0.03322  -1.01709
         Item               Value     Threshold  Converged?
 Maximum Force            0.000635     0.000015     NO 
 RMS     Force            0.000332     0.000010     NO 
 Maximum Displacement     0.026376     0.000060     NO 
 RMS     Displacement     0.010917     0.000040     NO 
 Predicted change in Energy=-5.526667D-05
 GradGradGradGradGradGradGradGradGradGradGradGradGradGradGradGradGradGrad

                          Input orientation:                          
 ---------------------------------------------------------------------
 Center     Atomic     Atomic              Coordinates (Angstroms)
 Number     Number      Type              X           Y           Z
 ---------------------------------------------------------------------
    1          6             0       15.000068   14.999275   14.228775
    2          6             0       14.999932   14.999275   15.771225
    3          1             0       16.013322   14.984714   13.845474
    4          1             0       13.986678   14.984714   16.154526
    5          1             0       15.521657   14.130915   16.157519
    6          1             0       15.493701   15.885096   16.156215
    7          1             0       14.478343   14.130915   13.842481
    8          1             0       14.506299   15.885096   13.843785
 ---------------------------------------------------------------------
                    Distance matrix (angstroms):
                    1          2          3          4          5
     1  C    0.000000
     2  C    1.542450   0.000000
     3  H    1.083428   2.176164   0.000000
     4  H    2.176164   1.083428   3.072297   0.000000
     5  H    2.178568   1.084190   2.513217   1.756457   0.000000
     6  H    2.177930   1.084761   2.533815   1.755509   1.754405
     7  H    1.084190   2.178568   1.756457   2.513217   2.539273
     8  H    1.084761   2.177930   1.755509   2.533815   3.075951
                    6          7          8
     6  H    0.000000
     7  H    3.075951   0.000000
     8  H    2.514419   1.754405   0.000000
 Symmetry turned off by external request.
 Stoichiometry    C2H6
 Framework group  C2[X(C2H6)]
 Deg. of freedom    10
 Full point group                 C2
 Rotational constants (GHZ):     81.3620582     19.8508145     19.8449268
 Standard basis: 3-21G (6D, 7F)
 Integral buffers will be    131072 words long.
 Raffenetti 1 integral format.
 Two-electron integral symmetry is turned off.
    30 basis functions,    48 primitive gaussians,    30 cartesian basis functions
     9 alpha electrons        9 beta electrons
       nuclear repulsion energy        42.2540209364 Hartrees.
 NAtoms=    8 NActive=    8 NUniq=    8 SFac= 7.50D-01 NAtFMM=   80 NAOKFM=F Big=F
 One-electron integrals computed using PRISM.
 NBasis=    30 RedAO= T  NBF=    30
 NBsUse=    30 1.00D-06 NBFU=    30
 Initial guess read from the read-write file:
 Harris functional with IExCor=  205 diagonalized for initial guess.
 ExpMin= 1.83D-01 ExpMax= 1.72D+02 ExpMxC= 1.72D+02 IAcc=3 IRadAn=         5 AccDes= 0.00D+00
 HarFok:  IExCor= 205 AccDes= 0.00D+00 IRadAn=         5 IDoV=1
 ScaDFX=  1.000000  1.000000  1.000000  1.000000
 Requested convergence on RMS density matrix=1.00D-08 within 128 cycles.
 Requested convergence on MAX density matrix=1.00D-06.
 Requested convergence on             energy=1.00D-06.
 No special actions if energy rises.
 Keep R1 integrals in memory in canonical form, NReq=      943828.
 SCF Done:  E(RHF) =  -78.7939343459     A.U. after    7 cycles
             Convg  =    0.7431D-08             -V/T =  2.0019
             S**2   =   0.0000
 -------------------------------------------------------------------
 Center     Atomic                   Forces (Hartrees/Bohr)
 Number     Number              X              Y              Z
 -------------------------------------------------------------------
    1          6          -0.000597130    0.000504067    0.000005284
    2          6           0.000597130    0.000504067   -0.000005284
    3          1           0.000326023   -0.000038569   -0.000394618
    4          1          -0.000326023   -0.000038569    0.000394618
    5          1          -0.000373850   -0.000203591   -0.000140356
    6          1          -0.000209878   -0.000261907   -0.000239400
    7          1           0.000373850   -0.000203591    0.000140356
    8          1           0.000209878   -0.000261907    0.000239400
 -------------------------------------------------------------------
 Cartesian Forces:  Max     0.000597130 RMS     0.000322109

 GradGradGradGradGradGradGradGradGradGradGradGradGradGradGradGradGradGrad
 Berny optimization.
 Internal  Forces:  Max     0.000445035 RMS     0.000228239
 Search for a local minimum.
 Step number   2 out of a maximum of  38 on scan point     2 out of    31
 All quantities printed in internal units (Hartrees-Bohrs-Radians)
 Update second derivatives using D2CorX and points  1  2
 Trust test= 9.25D-01 RLast= 7.66D-02 DXMaxT set to 4.24D-01
     Eigenvalues ---    0.01676   0.05558   0.05572   0.05600   0.13807
     Eigenvalues ---    0.16000   0.16000   0.16000   0.16000   0.17231
     Eigenvalues ---    0.31734   0.32502   0.32502   0.32502   0.32502
     Eigenvalues ---    0.34426   0.381991000.000001000.000001000.00000
     Eigenvalues --- 1000.000001000.000001000.000001000.000001000.00000
     Eigenvalues --- 1000.000001000.000001000.00000
 RFO step:  Lambda=-4.96626214D-06.
 Quartic linear search produced a step of -0.06414.
 Iteration  1 RMS(Cart)=  0.00133552 RMS(Int)=  0.00000194
 Iteration  2 RMS(Cart)=  0.00000096 RMS(Int)=  0.00000163
 Iteration  1 RMS(Cart)=  0.00000055 RMS(Int)=  0.00000096
 Variable       Old X    -DE/DX   Delta X   Delta X   Delta X     New X
                                 (Linear)    (Quad)   (Total)
    R1        2.91481   0.00001   0.00000   0.00000   0.00000   2.91481
    R2        2.04738   0.00045   0.00008   0.00114   0.00123   2.04861
    R3        2.04882  -0.00007  -0.00001  -0.00018  -0.00018   2.04864
    R4        2.04990  -0.00039  -0.00008  -0.00100  -0.00108   2.04883
    R5        2.04738   0.00045   0.00008   0.00114   0.00123   2.04861
    R6        2.04882  -0.00007  -0.00001  -0.00018  -0.00018   2.04864
    R7        2.04990  -0.00039  -0.00008  -0.00100  -0.00108   2.04883
    A1        1.93250   0.00037   0.00048   0.00177   0.00225   1.93475
    A2        1.93505  -0.00022  -0.00008  -0.00133  -0.00141   1.93364
    A3        1.93357  -0.00013  -0.00039  -0.00034  -0.00073   1.93284
    A4        1.88939  -0.00019   0.00060  -0.00170  -0.00109   1.88830
    A5        1.88717  -0.00009  -0.00001  -0.00015  -0.00017   1.88700
    A6        1.88446   0.00026  -0.00061   0.00174   0.00114   1.88560
    A7        1.93250   0.00037   0.00048   0.00177   0.00225   1.93475
    A8        1.93505  -0.00022  -0.00008  -0.00133  -0.00141   1.93364
    A9        1.93357  -0.00013  -0.00039  -0.00034  -0.00073   1.93284
   A10        1.88939  -0.00019   0.00060  -0.00170  -0.00109   1.88830
   A11        1.88717  -0.00009  -0.00001  -0.00015  -0.00017   1.88700
   A12        1.88446   0.00026  -0.00061   0.00174   0.00114   1.88560
    D1       -3.11285   0.00006  -0.00205   0.00368   0.00163  -3.11122
    D2       -1.01538  -0.00009  -0.00103   0.00184   0.00082  -1.01456
    D3        1.07662   0.00001  -0.00209   0.00293   0.00084   1.07746
    D4       -1.01538  -0.00009  -0.00103   0.00184   0.00082  -1.01456
    D5        1.08210  -0.00023   0.00000   0.00000   0.00000   1.08210
    D6       -3.10909  -0.00014  -0.00107   0.00109   0.00003  -3.10906
    D7        1.07662   0.00001  -0.00209   0.00293   0.00084   1.07746
    D8       -3.10909  -0.00014  -0.00107   0.00109   0.00003  -3.10906
    D9       -1.01709  -0.00004  -0.00213   0.00218   0.00005  -1.01704
         Item               Value     Threshold  Converged?
 Maximum Force            0.000445     0.000015     NO 
 RMS     Force            0.000222     0.000010     NO 
 Maximum Displacement     0.003440     0.000060     NO 
 RMS     Displacement     0.001336     0.000040     NO 
 Predicted change in Energy=-2.723303D-06
 GradGradGradGradGradGradGradGradGradGradGradGradGradGradGradGradGradGrad

                          Input orientation:                          
 ---------------------------------------------------------------------
 Center     Atomic     Atomic              Coordinates (Angstroms)
 Number     Number      Type              X           Y           Z
 ---------------------------------------------------------------------
    1          6             0       15.000594   14.999629   14.228775
    2          6             0       14.999406   14.999629   15.771225
    3          1             0       16.013840   14.984247   13.843654
    4          1             0       13.986160   14.984247   16.156346
    5          1             0       15.521104   14.130881   16.156410
    6          1             0       15.492769   15.885242   16.155614
    7          1             0       14.478896   14.130881   13.843590
    8          1             0       14.507231   15.885242   13.844386
 ---------------------------------------------------------------------
                    Distance matrix (angstroms):
                    1          2          3          4          5
     1  C    0.000000
     2  C    1.542450   0.000000
     3  H    1.084076   2.178266   0.000000
     4  H    2.178266   1.084076   3.075716   0.000000
     5  H    2.177482   1.084094   2.513934   1.756213   0.000000
     6  H    2.176983   1.084192   2.535442   1.755466   1.754590
     7  H    1.084094   2.177482   1.756213   2.513934   2.536795
     8  H    1.084192   2.176983   1.755466   2.535442   3.074276
                    6          7          8
     6  H    0.000000
     7  H    3.074276   0.000000
     8  H    2.512580   1.754590   0.000000
 Symmetry turned off by external request.
 Stoichiometry    C2H6
 Framework group  C2[X(C2H6)]
 Deg. of freedom    10
 Full point group                 C2
 Rotational constants (GHZ):     81.3651003     19.8499056     19.8452377
 Standard basis: 3-21G (6D, 7F)
 Integral buffers will be    131072 words long.
 Raffenetti 1 integral format.
 Two-electron integral symmetry is turned off.
    30 basis functions,    48 primitive gaussians,    30 cartesian basis functions
     9 alpha electrons        9 beta electrons
       nuclear repulsion energy        42.2540114479 Hartrees.
 NAtoms=    8 NActive=    8 NUniq=    8 SFac= 7.50D-01 NAtFMM=   80 NAOKFM=F Big=F
 One-electron integrals computed using PRISM.
 NBasis=    30 RedAO= T  NBF=    30
 NBsUse=    30 1.00D-06 NBFU=    30
 Initial guess read from the read-write file:
 Requested convergence on RMS density matrix=1.00D-08 within 128 cycles.
 Requested convergence on MAX density matrix=1.00D-06.
 Requested convergence on             energy=1.00D-06.
 No special actions if energy rises.
 Keep R1 integrals in memory in canonical form, NReq=      943828.
 SCF Done:  E(RHF) =  -78.7939366250     A.U. after    6 cycles
             Convg  =    0.9509D-08             -V/T =  2.0019
             S**2   =   0.0000
 -------------------------------------------------------------------
 Center     Atomic                   Forces (Hartrees/Bohr)
 Number     Number              X              Y              Z
 -------------------------------------------------------------------
    1          6          -0.000470910    0.000163887   -0.000000486
    2          6           0.000470910    0.000163887    0.000000486
    3          1          -0.000005203    0.000023867    0.000060233
    4          1           0.000005203    0.000023867   -0.000060233
    5          1          -0.000248890   -0.000166983    0.000033419
    6          1           0.000009295   -0.000020771    0.000027662
    7          1           0.000248890   -0.000166983   -0.000033419
    8          1          -0.000009295   -0.000020771   -0.000027662
 -------------------------------------------------------------------
 Cartesian Forces:  Max     0.000470910 RMS     0.000169575

 GradGradGradGradGradGradGradGradGradGradGradGradGradGradGradGradGradGrad
 Berny optimization.
 Internal  Forces:  Max     0.000256170 RMS     0.000083402
 Search for a local minimum.
 Step number   3 out of a maximum of  38 on scan point     2 out of    31
 All quantities printed in internal units (Hartrees-Bohrs-Radians)
 Update second derivatives using D2CorX and points  1  2  3
 Trust test= 8.37D-01 RLast= 5.57D-03 DXMaxT set to 4.24D-01
     Eigenvalues ---    0.01718   0.05556   0.05573   0.05639   0.13806
     Eigenvalues ---    0.15995   0.16000   0.16000   0.16000   0.19971
     Eigenvalues ---    0.31730   0.32288   0.32502   0.32502   0.32502
     Eigenvalues ---    0.34138   0.381981000.000001000.000001000.00000
     Eigenvalues --- 1000.000001000.000001000.000001000.000001000.00000
     Eigenvalues --- 1000.000001000.000001000.00000
 RFO step:  Lambda=-5.28834691D-08.
 Quartic linear search produced a step of -0.14030.
 Iteration  1 RMS(Cart)=  0.00027399 RMS(Int)=  0.00000007
 Iteration  2 RMS(Cart)=  0.00000005 RMS(Int)=  0.00000004
 Iteration  1 RMS(Cart)=  0.00000034 RMS(Int)=  0.00000060
 Variable       Old X    -DE/DX   Delta X   Delta X   Delta X     New X
                                 (Linear)    (Quad)   (Total)
    R1        2.91481   0.00000   0.00000   0.00000   0.00000   2.91481
    R2        2.04861  -0.00003  -0.00017   0.00012  -0.00005   2.04856
    R3        2.04864   0.00003   0.00003   0.00004   0.00007   2.04871
    R4        2.04883   0.00000   0.00015  -0.00018  -0.00002   2.04880
    R5        2.04861  -0.00003  -0.00017   0.00012  -0.00005   2.04856
    R6        2.04864   0.00003   0.00003   0.00004   0.00007   2.04871
    R7        2.04883   0.00000   0.00015  -0.00018  -0.00002   2.04880
    A1        1.93475  -0.00014  -0.00032  -0.00008  -0.00040   1.93435
    A2        1.93364   0.00005   0.00020   0.00007   0.00027   1.93391
    A3        1.93284   0.00009   0.00010   0.00004   0.00015   1.93299
    A4        1.88830  -0.00006   0.00015   0.00016   0.00031   1.88861
    A5        1.88700   0.00001   0.00002  -0.00005  -0.00002   1.88697
    A6        1.88560   0.00004  -0.00016  -0.00014  -0.00030   1.88530
    A7        1.93475  -0.00014  -0.00032  -0.00008  -0.00040   1.93435
    A8        1.93364   0.00005   0.00020   0.00007   0.00027   1.93391
    A9        1.93284   0.00009   0.00010   0.00004   0.00015   1.93299
   A10        1.88830  -0.00006   0.00015   0.00016   0.00031   1.88861
   A11        1.88700   0.00001   0.00002  -0.00005  -0.00002   1.88697
   A12        1.88560   0.00004  -0.00016  -0.00014  -0.00030   1.88530
    D1       -3.11122   0.00001  -0.00023  -0.00038  -0.00061  -3.11183
    D2       -1.01456  -0.00013  -0.00011  -0.00019  -0.00030  -1.01486
    D3        1.07746   0.00002  -0.00012  -0.00029  -0.00041   1.07705
    D4       -1.01456  -0.00013  -0.00011  -0.00019  -0.00030  -1.01486
    D5        1.08210  -0.00026   0.00000   0.00000   0.00000   1.08210
    D6       -3.10906  -0.00011   0.00000  -0.00010  -0.00011  -3.10917
    D7        1.07746   0.00002  -0.00012  -0.00029  -0.00041   1.07705
    D8       -3.10906  -0.00011   0.00000  -0.00010  -0.00011  -3.10917
    D9       -1.01704   0.00003  -0.00001  -0.00021  -0.00021  -1.01726
         Item               Value     Threshold  Converged?
 Maximum Force            0.000089     0.000015     NO 
 RMS     Force            0.000035     0.000010     NO 
 Maximum Displacement     0.000545     0.000060     NO 
 RMS     Displacement     0.000274     0.000040     NO 
 Predicted change in Energy=-8.760592D-08
 GradGradGradGradGradGradGradGradGradGradGradGradGradGradGradGradGradGrad

                          Input orientation:                          
 ---------------------------------------------------------------------
 Center     Atomic     Atomic              Coordinates (Angstroms)
 Number     Number      Type              X           Y           Z
 ---------------------------------------------------------------------
    1          6             0       15.000498   14.999566   14.228775
    2          6             0       14.999502   14.999566   15.771225
    3          1             0       16.013830   14.984489   13.843942
    4          1             0       13.986170   14.984489   16.156058
    5          1             0       15.521212   14.130878   16.156629
    6          1             0       15.492974   15.885067   16.155696
    7          1             0       14.478788   14.130878   13.843371
    8          1             0       14.507026   15.885067   13.844304
 ---------------------------------------------------------------------
                    Distance matrix (angstroms):
                    1          2          3          4          5
     1  C    0.000000
     2  C    1.542450   0.000000
     3  H    1.084050   2.177959   0.000000
     4  H    2.177959   1.084050   3.075270   0.000000
     5  H    2.177701   1.084129   2.513931   1.756418   0.000000
     6  H    2.177078   1.084179   2.535061   1.755419   1.754416
     7  H    1.084129   2.177701   1.756418   2.513931   2.537284
     8  H    1.084179   2.177078   1.755419   2.535061   3.074507
                    6          7          8
     6  H    0.000000
     7  H    3.074507   0.000000
     8  H    2.512891   1.754416   0.000000
 Symmetry turned off by external request.
 Stoichiometry    C2H6
 Framework group  C2[X(C2H6)]
 Deg. of freedom    10
 Full point group                 C2
 Rotational constants (GHZ):     81.3655899     19.8503506     19.8447277
 Standard basis: 3-21G (6D, 7F)
 Integral buffers will be    131072 words long.
 Raffenetti 1 integral format.
 Two-electron integral symmetry is turned off.
    30 basis functions,    48 primitive gaussians,    30 cartesian basis functions
     9 alpha electrons        9 beta electrons
[...]
           A6         108.11581 108.01961 107.92229 107.82648 107.72777
           A7         110.79482 110.83019 110.86944 110.90868 110.94911
           A8         110.79482 110.80485 110.81580 110.82938 110.84556
           A9         110.79482 110.75209 110.71067 110.67271 110.63652
           A10        108.11581 108.20924 108.29829 108.38374 108.46463
           A11        108.11581 108.11559 108.11415 108.10812 108.10341
           A12        108.11581 108.01961 107.92229 107.82648 107.72777
           D1         179.99999-178.29480-176.58527-174.87075-173.15033
           D2         -60.00001 -58.14747 -56.29269 -54.43541 -52.57519
           D3          59.99999  61.71033  63.42314  65.14449  66.86814
           D4         -60.00001 -58.14747 -56.29269 -54.43541 -52.57520
           D5          59.99999  61.99985  63.99989  65.99993  67.99995
           D6         179.99999-178.14235-176.28427-174.42017-172.55672
           D7          59.99999  61.71033  63.42314  65.14449  66.86813
           D8         179.99999-178.14235-176.28427-174.42017-172.55672
           D9         -60.00001 -58.28455 -56.56844 -54.84027 -53.11339
                           6         7         8         9        10
     EIGENVALUES --   -78.79367 -78.79355 -78.79341 -78.79326 -78.79309
           R1           1.54320   1.54355   1.54393   1.54439   1.54488
           R2           1.08370   1.08361   1.08352   1.08344   1.08336
           R3           1.08409   1.08407   1.08404   1.08401   1.08398
           R4           1.08442   1.08446   1.08449   1.08452   1.08453
           R5           1.08370   1.08361   1.08352   1.08344   1.08336
           R6           1.08408   1.08407   1.08404   1.08401   1.08398
           R7           1.08442   1.08446   1.08449   1.08452   1.08453
           A1         110.99015 111.03113 111.07213 111.11272 111.15293
           A2         110.86406 110.88198 110.90336 110.92340 110.94516
           A3         110.60294 110.57549 110.55016 110.53036 110.51510
           A4         108.53922 108.60845 108.66985 108.72438 108.76901
           A5         108.09620 108.08535 108.07399 108.05989 108.04579
           A6         107.63177 107.53886 107.44819 107.36315 107.28176
           A7         110.99008 111.03114 111.07220 111.11272 111.15293
           A8         110.86199 110.88214 110.90337 110.92339 110.94517
           A9         110.60513 110.57532 110.55014 110.53036 110.51508
           A10        108.53915 108.60846 108.66969 108.72438 108.76899
           A11        108.09631 108.08533 108.07411 108.05988 108.04583
           A12        107.63170 107.53886 107.44819 107.36315 107.28176
           D1        -171.41714-169.67314-167.91273-166.13341-164.33116
           D2         -50.70939 -48.83654 -46.95647 -45.06674 -43.16564
           D3          68.60411  70.35466  72.11891  73.90263  75.70632
           D4         -50.70785 -48.83666 -46.95632 -45.06674 -43.16562
           D5          69.99990  71.99994  73.99993  75.99994  77.99990
           D6        -170.68661-168.80886-166.92469-165.03070-163.12814
           D7          68.60564  70.35453  72.11908  73.90263  75.70636
           D8        -170.68661-168.80886-166.92466-165.03070-163.12812
           D9         -51.37311 -49.61767 -47.84928 -46.06133 -44.25617
                          11        12        13        14        15
     EIGENVALUES --   -78.79290 -78.79270 -78.79249 -78.79227 -78.79205
           R1           1.54544   1.54602   1.54667   1.54732   1.54802
           R2           1.08328   1.08320   1.08313   1.08306   1.08300
           R3           1.08395   1.08391   1.08387   1.08382   1.08378
           R4           1.08453   1.08453   1.08451   1.08448   1.08445
           R5           1.08328   1.08320   1.08313   1.08306   1.08300
           R6           1.08395   1.08391   1.08387   1.08383   1.08378
           R7           1.08453   1.08453   1.08451   1.08448   1.08445
           A1         111.19095 111.22842 111.26272 111.29602 111.32490
           A2         110.96664 110.98897 111.00971 111.03125 111.05059
           A3         110.50432 110.49910 110.49913 110.50484 110.51576
           A4         108.80723 108.83365 108.85312 108.85973 108.85926
           A5         108.02838 108.01147 107.99181 107.97280 107.95153
           A6         107.20803 107.13955 107.08045 107.02803 106.98670
           A7         111.19095 111.22843 111.26272 111.29600 111.32490
           A8         110.96664 110.98895 111.00971 111.03125 111.05059
           A9         110.50432 110.49914 110.49913 110.50489 110.51576
           A10        108.80723 108.83371 108.85312 108.85977 108.85926
           A11        108.02838 108.01141 107.99182 107.97268 107.95153
           A12        107.20803 107.13954 107.08045 107.02808 106.98670
           D1        -162.50964-160.65897-158.78415-156.87666-154.94201
           D2         -41.25485 -39.32950 -37.39211 -35.43836 -33.47103
           D3          77.53200  79.38288  81.25985  83.16576  85.10080
           D4         -41.25485 -39.32957 -37.39211 -35.43839 -33.47104
           D5          79.99994  81.99991  83.99994  85.99991  87.99994
           D6        -161.21321-159.28771-157.34810-155.39597-153.42823
           D7          77.53200  79.38282  81.25986  83.16563  85.10080
           D8        -161.21322-159.28771-157.34810-155.39607-153.42822
           D9         -42.42637 -40.57533 -38.69613 -36.79195 -34.85639
                          16        17        18        19        20
     EIGENVALUES --   -78.79182 -78.79159 -78.79136 -78.79114 -78.79092
           R1           1.54872   1.54945   1.55017   1.55091   1.55161
           R2           1.08295   1.08290   1.08286   1.08283   1.08280
           R3           1.08373   1.08369   1.08364   1.08359   1.08354
           R4           1.08440   1.08435   1.08428   1.08422   1.08414
           R5           1.08295   1.08290   1.08286   1.08283   1.08281
           R6           1.08373   1.08369   1.08364   1.08359   1.08354
           R7           1.08440   1.08435   1.08429   1.08422   1.08414
           A1         111.35252 111.37437 111.39481 111.40819 111.42000
           A2         111.07036 111.08770 111.10501 111.11994 111.13433
           A3         110.53262 110.55409 110.58162 110.61281 110.64992
           A4         108.84520 108.82426 108.78944 108.74847 108.69367
           A5         107.93109 107.90904 107.88801 107.86600 107.84529
           A6         106.95306 106.93205 106.91936 106.92027 106.93000
           A7         111.35243 111.37437 111.39470 111.40819 111.42008
           A8         111.07040 111.08770 111.10499 111.11994 111.13414
           A9         110.53259 110.55410 110.58148 110.61282 110.64959
           A10        108.84515 108.82427 108.78941 108.74847 108.69390
           A11        107.93107 107.90904 107.88816 107.86599 107.84572
           A12        106.95323 106.93204 106.91954 106.92027 106.92979
           D1        -152.97163-150.97255-148.93582-146.87051-144.76704
           D2         -31.48591 -29.48630 -27.46801 -25.43528 -23.38344
           D3          87.06763  89.06566  91.09700  93.16038  95.25693
           D4         -31.48580 -29.48631 -27.46788 -25.43528 -23.38366
           D5          89.99992  91.99994  93.99993  95.99994  97.99994
           D6        -151.44655-149.44810-147.43506-145.40439-143.35969
           D7          87.06752  89.06566  91.09701  93.16037  95.25731
           D8        -151.44676-149.44810-147.43518-145.40440-143.35909
           D9         -32.89323 -30.89614 -28.87017 -26.80874 -24.71872
                          21        22        23        24        25
     EIGENVALUES --   -78.79071 -78.79051 -78.79033 -78.79016 -78.79001
           R1           1.55232   1.55297   1.55361   1.55418   1.55470
           R2           1.08280   1.08278   1.08280   1.08282   1.08284
           R3           1.08349   1.08345   1.08340   1.08335   1.08332
           R4           1.08406   1.08397   1.08388   1.08378   1.08369
           R5           1.08280   1.08280   1.08280   1.08281   1.08284
           R6           1.08349   1.08344   1.08340   1.08336   1.08332
           R7           1.08406   1.08396   1.08388   1.08379   1.08369
           A1         111.42380 111.42556 111.41924 111.40934 111.39340
           A2         111.14668 111.15800 111.16765 111.17585 111.18287
           A3         110.68940 110.73453 110.78030 110.82935 110.88117
           A4         108.63409 108.56102 108.48534 108.40006 108.30840
           A5         107.82417 107.80449 107.78540 107.76814 107.75141
           A6         106.95328 106.98614 107.03077 107.08508 107.14998
           A7         111.42378 111.42653 111.41918 111.40874 111.39339
           A8         111.14669 111.15751 111.16766 111.17593 111.18285
           A9         110.68942 110.73373 110.78034 110.82967 110.88116
           A10        108.63408 108.56184 108.48531 108.39993 108.30841
           A11        107.82415 107.80563 107.78536 107.76772 107.75142
           A12        106.95331 106.98448 107.03086 107.08588 107.15000
           D1        -142.63697-140.46984-138.27979-136.05939-133.81397
           D2         -21.31852 -19.23425 -17.13995 -15.02997 -12.90701
           D3          97.38505  99.54401 101.73322 103.94970 106.19132
           D4         -21.31850 -19.23563 -17.13989 -15.02943 -12.90701
           D5          99.99995 101.99996 103.99995 105.99999 107.99996
           D6        -141.29648-139.22178-137.12687-135.02034-132.90171
           D7          97.38503  99.54554 101.73315 103.94898 106.19132
           D8        -141.29653-139.21887-137.12701-135.02160-132.90172
           D9         -22.59295 -20.44061 -18.25383 -16.04193 -13.80339
                          26        27        28        29        30
     EIGENVALUES --   -78.78988 -78.78977 -78.78968 -78.78962 -78.78958
           R1           1.55516   1.55554   1.55585   1.55607   1.55621
           R2           1.08287   1.08291   1.08297   1.08303   1.08310
           R3           1.08328   1.08325   1.08323   1.08320   1.08319
           R4           1.08359   1.08350   1.08342   1.08333   1.08325
           R5           1.08287   1.08291   1.08297   1.08303   1.08310
           R6           1.08328   1.08325   1.08322   1.08320   1.08318
           R7           1.08360   1.08350   1.08341   1.08333   1.08325
           A1         111.37255 111.34618 111.31418 111.27914 111.23873
           A2         111.18857 111.19259 111.19698 111.19678 111.19538
           A3         110.93376 110.98681 111.03874 111.09266 111.14409
           A4         108.21173 108.11133 108.00811 107.90299 107.79904
           A5         107.73662 107.72406 107.71327 107.70484 107.69803
           A6         107.22360 107.30567 107.39527 107.49008 107.59128
           A7         111.37242 111.34624 111.31459 111.27918 111.23852
           A8         111.18826 111.19264 111.19706 111.19675 111.19601
           A9         110.93342 110.98684 111.03875 111.09244 111.14440
           A10        108.21206 108.11128 108.00800 107.90308 107.79885
           A11        107.73696 107.72402 107.71327 107.70497 107.69771
           A12        107.22374 107.30561 107.39486 107.49008 107.59102
           D1        -131.54704-129.26095-126.96108-124.64621-122.32607
           D2         -10.77346  -8.63051  -6.48047  -4.32305  -2.16304
           D3         108.45536 110.73938 113.03910 115.35208 117.67376
           D4         -10.77358  -8.63052  -6.48066  -4.32318  -2.16309
           D5         110.00000 111.99991 113.99995 115.99998 117.99993
           D6        -130.77118-128.63020-126.48047-124.32489-122.16327
           D7         108.45549 110.73939 113.03937 115.35213 117.67342
           D8        -130.77093-128.63018-126.48002-124.32471-122.16356
           D9         -11.54211  -9.26029  -6.96045  -4.64958  -2.32676
                          31
     EIGENVALUES --   -78.78957
           R1           1.55625
           R2           1.08317
           R3           1.08317
           R4           1.08317
           R5           1.08317
           R6           1.08317
           R7           1.08317
           A1         111.19418
           A2         111.19504
           A3         111.19426
           A4         107.69445
           A5         107.69459
           A6         107.69395
           A7         111.19370
           A8         111.19410
           A9         111.19536
           A10        107.69500
           A11        107.69436
           A12        107.69396
           D1        -120.00041
           D2          -0.00036
           D3         119.99950
           D4          -0.00011
           D5         119.99994
           D6        -120.00020
           D7         119.99963
           D8        -120.00032
           D9          -0.00046
                          Input orientation:                          
 ---------------------------------------------------------------------
 Center     Atomic     Atomic              Coordinates (Angstroms)
 Number     Number      Type              X           Y           Z
 ---------------------------------------------------------------------
    1          6             0       15.001356   14.999997   14.221878
    2          6             0       14.998643   15.000004   15.778124
    3          1             0       15.876644   14.495045   13.831807
    4          1             0       14.123353   14.495054   16.168191
    5          1             0       15.872563   14.495049   16.171247
    6          1             0       14.997966   16.009902   16.169738
    7          1             0       14.127438   14.495046   13.828742
    8          1             0       15.002036   16.009904   13.830273
 ---------------------------------------------------------------------
                    Distance matrix (angstroms):
                    1          2          3          4          5
     1  C    0.000000
     2  C    1.556248   0.000000
     3  H    1.083172   2.194087   0.000000
     4  H    2.194081   1.083172   2.921082   0.000000
     5  H    2.194086   1.083171   2.339444   1.749213   0.000000
     6  H    2.194101   1.083170   2.921094   1.749205   1.749200
     7  H    1.083173   2.194099   1.749208   2.339453   2.921094
     8  H    1.083175   2.194090   1.749211   2.921081   2.921089
                    6          7          8
     6  H    0.000000
     7  H    2.921108   0.000000
     8  H    2.339468   1.749205   0.000000
 Symmetry turned off by external request.
 Stoichiometry    C2H6
 Framework group  C1[X(C2H6)]
 Deg. of freedom    18
 Full point group                 C1
 Rotational constants (GHZ):     81.9444563     19.5210616     19.5210428

 **********************************************************************

            Population analysis using the SCF density.

 **********************************************************************

 Alpha  occ. eigenvalues --  -11.15154 -11.15126  -1.01431  -0.84839  -0.59715
 Alpha  occ. eigenvalues --   -0.59715  -0.50120  -0.48582  -0.48581
 Alpha virt. eigenvalues --    0.27942   0.30552   0.30552   0.34213   0.42406
 Alpha virt. eigenvalues --    0.42498   0.42498   0.90356   0.90356   0.98450
 Alpha virt. eigenvalues --    1.06929   1.12383   1.12383   1.30123   1.34754
 Alpha virt. eigenvalues --    1.34754   1.36720   1.36720   1.44744   1.91873
 Alpha virt. eigenvalues --    2.31972
          Condensed to atoms (all electrons):
              1          2          3          4          5          6
     1  C    5.364261   0.228079   0.379831  -0.039909  -0.039908  -0.039906
     2  C    0.228079   5.364261  -0.039908   0.379831   0.379831   0.379831
     3  H    0.379831  -0.039908   0.511220   0.001955  -0.004958   0.001955
     4  H   -0.039909   0.379831   0.001955   0.511221  -0.027064  -0.027065
     5  H   -0.039908   0.379831  -0.004958  -0.027064   0.511220  -0.027066
     6  H   -0.039906   0.379831   0.001955  -0.027065  -0.027066   0.511219
     7  H    0.379831  -0.039907  -0.027065  -0.004958   0.001955   0.001955
     8  H    0.379830  -0.039908  -0.027065   0.001955   0.001955  -0.004958
              7          8
     1  C    0.379831   0.379830
     2  C   -0.039907  -0.039908
     3  H   -0.027065  -0.027065
     4  H   -0.004958   0.001955
     5  H    0.001955   0.001955
     6  H    0.001955  -0.004958
     7  H    0.511220  -0.027066
     8  H   -0.027066   0.511222
 Mulliken atomic charges:
              1
     1  C   -0.612108
     2  C   -0.612109
     3  H    0.204036
     4  H    0.204036
     5  H    0.204036
     6  H    0.204037
     7  H    0.204036
     8  H    0.204035
 Sum of Mulliken charges=   0.00000
 Atomic charges with hydrogens summed into heavy atoms:
              1
     1  C   -0.000001
     2  C    0.000001
     3  H    0.000000
     4  H    0.000000
     5  H    0.000000
     6  H    0.000000
     7  H    0.000000
     8  H    0.000000
 Sum of Mulliken charges=   0.00000
 Electronic spatial extent (au):  <R**2>= 43499.3211
 Charge=     0.0000 electrons
 Dipole moment (field-independent basis, Debye):
    X=     0.0000    Y=     0.0000    Z=     0.0000  Tot=     0.0000
 Quadrupole moment (field-independent basis, Debye-Ang):
   XX=   -15.0108   YY=   -15.0108   ZZ=   -15.3945
   XY=     0.0000   XZ=     0.0007   YZ=     0.0001
 Traceless Quadrupole moment (field-independent basis, Debye-Ang):
   XX=     0.1279   YY=     0.1279   ZZ=    -0.2558
   XY=     0.0000   XZ=     0.0007   YZ=     0.0001
 Octapole moment (field-independent basis, Debye-Ang**2):
  XXX=  -675.4855  YYY=  -674.3620  ZZZ=  -692.7543  XYY=  -225.1625
  XXY=  -226.2878  XXZ=  -225.1402  XZZ=  -230.8965  YZZ=  -230.9164
  YYZ=  -225.1612  XYZ=     0.0098
 Hexadecapole moment (field-independent basis, Debye-Ang**3):
 XXXX=-20292.1402 YYYY=-20224.6400 ZZZZ=-20876.6689 XXXY=-10182.9653
 XXXZ=-10131.7557 YYYX=-10115.4277 YYYZ=-10115.3994 ZZZX=-10390.7761
 ZZZY=-10391.2867 XXYY= -6797.8411 XXZZ= -6859.6075 YYZZ= -6860.2162
 XXYZ= -3394.0479 YYXZ= -3377.2988 ZZXY= -3463.4884
 N-N= 4.209207325043D+01 E-N=-2.667351253192D+02  KE= 7.863708799815D+01
 1\1\GINC-MOLMOD49\Scan\RHF\3-21G\C2H6\TOON\31-Oct-2009\0\\# HF/3-21G o
 pt(modredundant,tight) int=ultrafine scf(tight) maxdisk=12GB NoSymm\\W
 ho cares about the title?\\0,1\C,15.0013562524,14.9999967885,14.221878
 3399\C,14.9986434172,15.000003531,15.7781236037\H,15.8766439923,14.495
 0448071,13.8318068863\H,14.1233525137,14.4950535949,16.1681910448\H,15
 .8725629545,14.4950492218,16.1712472204\H,14.9979662096,16.0099022221,
 16.1697378298\H,14.1274384879,14.4950458041,13.828741925\H,15.00203617
 26,16.0099040304,13.8302731501\\Version=AM64L-G03RevD.01\HF=-78.793948
 ,-78.7939367,-78.7939028,-78.7938468,-78.7937689,-78.7936702,-78.79355
 13,-78.7934135,-78.793258,-78.7930864,-78.7929003,-78.7927016,-78.7924
 922,-78.7922743,-78.7920502,-78.7918222,-78.7915927,-78.7913644,-78.79
 11397,-78.7909212,-78.7907114,-78.7905128,-78.7903279,-78.7901588,-78.
 7900076,-78.7898763,-78.7897664,-78.7896795,-78.7896165,-78.7895785,-7
 8.7895657\RMSD=2.237e-09,5.586e-09,1.597e-09,6.614e-09,8.443e-10,2.918
 e-09,7.789e-10,4.165e-09,1.077e-09,4.897e-09,1.233e-09,5.313e-09,1.334
 e-09,5.829e-09,1.300e-09,6.387e-09,1.179e-09,6.953e-09,1.015e-09,7.496
 e-09,8.276e-10,7.999e-09,6.825e-10,9.614e-09,5.219e-10,4.819e-09,1.729
 e-09,1.845e-09,2.932e-09,2.393e-09,1.594e-09\Thermal=0.,0.,0.,0.,0.,0.
 ,0.,0.,0.,0.,0.,0.,0.,0.,0.,0.,0.,0.,0.,0.,0.,0.,0.,0.,0.,0.,0.,0.,0.,
 0.,0.\PG=C01 [X(C2H6)]\\@


 FORGIVE MY NONSENSE AS I ALSO FORGIVE THOSE WHO THINK THEY TALK SENSE

                                                       -- ROBERT FROST
 Job cpu time:  0 days  0 hours  9 minutes 19.7 seconds.
 File lengths (MBytes):  RWF=     13 Int=      0 D2E=      0 Chk=      9 Scr=      1
 Normal termination of Gaussian 03 at Sat Oct 31 08:22:17 2009.
