 Entering Gaussian System, Link 0=g03
 Initial command:
 /opt/gaussian/g03_D1_amd64/g03/l1.exe /home/toon/unief/research/code/work/tamkin/examples/009_ethane_rotor/scan/Gau-16221.inp -scrdir=/home/toon/unief/research/code/work/tamkin/examples/009_ethane_rotor/scan/
 Entering Link 1 = /opt/gaussian/g03_D1_amd64/g03/l1.exe PID=     16223.
  
 Copyright (c) 1988,1990,1992,1993,1995,1998,2003,2004, Gaussian, Inc.
                  All Rights Reserved.
  
 This is the Gaussian(R) 03 program.  It is based on the
 the Gaussian(R) 98 system (copyright 1998, Gaussian, Inc.),
 the Gaussian(R) 94 system (copyright 1995, Gaussian, Inc.),
 the Gaussian 92(TM) system (copyright 1992, Gaussian, Inc.),
 the Gaussian 90(TM) system (copyright 1990, Gaussian, Inc.),
 the Gaussian 88(TM) system (copyright 1988, Gaussian, Inc.),
 the Gaussian 86(TM) system (copyright 1986, Carnegie Mellon
 University), and the Gaussian 82(TM) system (copyright 1983,
 Carnegie Mellon University). Gaussian is a federally registered
 trademark of Gaussian, Inc.
  
 This software contains proprietary and confidential information,
 including trade secrets, belonging to Gaussian, Inc.
  
 This software is provided under written license and may be
 used, copied, transmitted, or stored only in accord with that
 written license.
  
 The following legend is applicable only to US Government
 contracts under FAR:
  
                    RESTRICTED RIGHTS LEGEND
  
 Use, reproduction and disclosure by the US Government is
 subject to restrictions as set forth in subparagraphs (a)
 and (c) of the Commercial Computer Software - Restricted
 Rights clause in FAR 52.227-19.
  
 Gaussian, Inc.
 340 Quinnipiac St., Bldg. 40, Wallingford CT 06492
  
  
 ---------------------------------------------------------------
 Warning -- This program may not be used in any manner that
 competes with the business of Gaussian, Inc. or will provide
 assistance to any competitor of Gaussian, Inc.  The licensee
 of this program is prohibited from giving any competitor of
 Gaussian, Inc. access to this program.  By using this program,
 the user acknowledges that Gaussian, Inc. is engaged in the
 business of creating and licensing software in the field of
 computational chemistry and represents and warrants to the
 licensee that it is not a competitor of Gaussian, Inc. and that
 it will not use this program in any manner prohibited above.
 ---------------------------------------------------------------
  

 Cite this work as:
 Gaussian 03, Revision D.01,
 M. J. Frisch, G. W. Trucks, H. B. Schlegel, G. E. Scuseria, 
 M. A. Robb, J. R. Cheeseman, J. A. Montgomery, Jr., T. Vreven, 
 K. N. Kudin, J. C. Burant, J. M. Millam, S. S. Iyengar, J. Tomasi, 
 V. Barone, B. Mennucci, M. Cossi, G. Scalmani, N. Rega, 
 G. A. Petersson, H. Nakatsuji, M. Hada, M. Ehara, K. Toyota, 
 R. Fukuda, J. Hasegawa, M. Ishida, T. Nakajima, Y. Honda, O. Kitao, 
 H. Nakai, M. Klene, X. Li, J. E. Knox, H. P. Hratchian, J. B. Cross, 
 V. Bakken, C. Adamo, J. Jaramillo, R. Gomperts, R. E. Stratmann, 
 O. Yazyev, A. J. Austin, R. Cammi, C. Pomelli, J. W. Ochterski, 
 P. Y. Ayala, K. Morokuma, G. A. Voth, P. Salvador, J. J. Dannenberg, 
 V. G. Zakrzewski, S. Dapprich, A. D. Daniels, M. C. Strain, 
 O. Farkas, D. K. Malick, A. D. Rabuck, K. Raghavachari, 
 J. B. Foresman, J. V. Ortiz, Q. Cui, A. G. Baboul, S. Clifford, 
 J. Cioslowski, B. B. Stefanov, G. Liu, A. Liashenko, P. Piskorz, 
 I. Komaromi, R. L. Martin, D. J. Fox, T. Keith, M. A. Al-Laham, 
 C. Y. Peng, A. Nanayakkara, M. Challacombe, P. M. W. Gill, 
 B. Johnson, W. Chen, M. W. Wong, C. Gonzalez, and J. A. Pople, 
 Gaussian, Inc., Wallingford CT, 2004.
 
 ******************************************
 Gaussian 03:  AM64L-G03RevD.01 13-Oct-2005
                31-Oct-2009 
 ******************************************
 %chk=gaussian.chk
 %nproc=1
 Will use up to    1 processors via shared memory.
 %mem=500MB
 ----------------------------------------------------------------------
 # HF/3-21G opt(modredundant,tight) int=ultrafine scf(tight) maxdisk=12
 GB NoSymm
 ----------------------------------------------------------------------
 1/7=10,18=120,38=1/1,3;
 2/9=110,15=1,17=6,18=5,40=1/2;
 3/5=5,11=9,16=1,25=1,30=1,75=5/1,2,3;
 4//1;
 5/5=2,32=2,38=5/2;
 6/7=2,8=2,9=2,10=2,28=1/1;
 7/30=1/1,2,3,16;
 1/18=20/3(3);
 2/9=110,15=1/2;
 6/7=2,8=2,9=2,10=2,19=2,28=1/1;
 99//99;
 2/9=110,15=1/2;
 3/5=5,11=9,16=1,25=1,30=1,75=5/1,2,3;
 4/5=5,16=3/1;
 5/5=2,32=2,38=5/2;
 7/30=1/1,2,3,16;
 1/18=20/3(-5);
 2/9=110,15=1/2;
 6/7=2,8=2,9=2,10=2,19=2,28=1/1;
 99/9=1/99;
 --------------------------
 Who cares about the title?
 --------------------------
 Symbolic Z-matrix:
 Charge =  0 Multiplicity = 1
 C                     15.       15.       14.2351 
 C                     15.       15.       15.7649 
 H                     16.04167   15.       13.849 
 H                     13.95833   15.       16.151 
 H                     15.52084   14.09789   16.151 
 H                     15.52084   15.90211   16.151 
 H                     14.47916   14.09789   13.849 
 H                     14.47916   15.90211   13.849 
 
 The following ModRedundant input section has been read:
 D    7    1    2    5 S  30 2.0000                                            

 GradGradGradGradGradGradGradGradGradGradGradGradGradGradGradGradGradGrad
 Berny optimization.
 Initialization pass.
                           ----------------------------
                           !    Initial Parameters    !
                           ! (Angstroms and Degrees)  !
 --------------------------                            --------------------------
 ! Name  Definition              Value          Derivative Info.                !
 --------------------------------------------------------------------------------
 ! R1    R(1,2)                  1.5298         estimate D2E/DX2                !
 ! R2    R(1,3)                  1.1109         estimate D2E/DX2                !
 ! R3    R(1,7)                  1.1109         estimate D2E/DX2                !
 ! R4    R(1,8)                  1.1109         estimate D2E/DX2                !
 ! R5    R(2,4)                  1.1109         estimate D2E/DX2                !
 ! R6    R(2,5)                  1.1109         estimate D2E/DX2                !
 ! R7    R(2,6)                  1.1109         estimate D2E/DX2                !
 ! A1    A(2,1,3)              110.3375         estimate D2E/DX2                !
 ! A2    A(2,1,7)              110.3375         estimate D2E/DX2                !
 ! A3    A(2,1,8)              110.3375         estimate D2E/DX2                !
 ! A4    A(3,1,7)              108.5912         estimate D2E/DX2                !
 ! A5    A(3,1,8)              108.5912         estimate D2E/DX2                !
 ! A6    A(7,1,8)              108.5912         estimate D2E/DX2                !
 ! A7    A(1,2,4)              110.3375         estimate D2E/DX2                !
 ! A8    A(1,2,5)              110.3375         estimate D2E/DX2                !
 ! A9    A(1,2,6)              110.3375         estimate D2E/DX2                !
 ! A10   A(4,2,5)              108.5912         estimate D2E/DX2                !
 ! A11   A(4,2,6)              108.5912         estimate D2E/DX2                !
 ! A12   A(5,2,6)              108.5912         estimate D2E/DX2                !
 ! D1    D(3,1,2,4)            180.0            estimate D2E/DX2                !
 ! D2    D(3,1,2,5)            -60.0            estimate D2E/DX2                !
 ! D3    D(3,1,2,6)             60.0            estimate D2E/DX2                !
 ! D4    D(7,1,2,4)            -60.0            estimate D2E/DX2                !
 ! D5    D(7,1,2,5)             60.0            Scan                            !
 ! D6    D(7,1,2,6)            180.0            estimate D2E/DX2                !
 ! D7    D(8,1,2,4)             60.0            estimate D2E/DX2                !
 ! D8    D(8,1,2,5)            180.0            estimate D2E/DX2                !
 ! D9    D(8,1,2,6)            -60.0            estimate D2E/DX2                !
 --------------------------------------------------------------------------------
 Trust Radius=3.00D-01 FncErr=1.00D-07 GrdErr=1.00D-07
 Number of optimizations in scan=  31
 Number of steps in this run=  38 maximum allowed number of steps= 100.
 GradGradGradGradGradGradGradGradGradGradGradGradGradGradGradGradGradGrad

                          Input orientation:                          
 ---------------------------------------------------------------------
 Center     Atomic     Atomic              Coordinates (Angstroms)
 Number     Number      Type              X           Y           Z
 ---------------------------------------------------------------------
    1          6             0       15.000000   15.000000   14.235103
    2          6             0       15.000000   15.000000   15.764897
    3          1             0       16.041672   15.000000   13.849003
    4          1             0       13.958328   15.000000   16.150997
    5          1             0       15.520836   14.097886   16.150998
    6          1             0       15.520836   15.902114   16.150998
    7          1             0       14.479164   14.097886   13.849002
    8          1             0       14.479164   15.902114   13.849002
 ---------------------------------------------------------------------
 SCF Done:  E(RHF) =  -78.7909497078     A.U. after    9 cycles
                          Input orientation:                          
 ---------------------------------------------------------------------
 Center     Atomic     Atomic              Coordinates (Angstroms)
 Number     Number      Type              X           Y           Z
 ---------------------------------------------------------------------
    1          6             0       15.000000   15.000000   14.228731
    2          6             0       15.000000   15.000000   15.771269
    3          1             0       16.009339   15.000000   13.837983
    4          1             0       13.990661   15.000000   16.162017
    5          1             0       15.504669   14.125887   16.162017
    6          1             0       15.504669   15.874113   16.162017
    7          1             0       14.495331   14.125887   13.837983
    8          1             0       14.495331   15.874113   13.837983
 ---------------------------------------------------------------------
 SCF Done:  E(RHF) =  -78.7938866795     A.U. after    8 cycles
                          Input orientation:                          
 ---------------------------------------------------------------------
 Center     Atomic     Atomic              Coordinates (Angstroms)
 Number     Number      Type              X           Y           Z
 ---------------------------------------------------------------------
    1          6             0       15.000000   15.000000   14.229840
    2          6             0       15.000000   15.000000   15.770160
    3          1             0       16.013230   15.000000   13.844654
    4          1             0       13.986770   15.000000   16.155346
    5          1             0       15.506615   14.122517   16.155347
    6          1             0       15.506615   15.877483   16.155347
    7          1             0       14.493385   14.122517   13.844653
    8          1             0       14.493385   15.877483   13.844653
 ---------------------------------------------------------------------
 SCF Done:  E(RHF) =  -78.7939458360     A.U. after    7 cycles
                          Input orientation:                          
 ---------------------------------------------------------------------
 Center     Atomic     Atomic              Coordinates (Angstroms)
 Number     Number      Type              X           Y           Z
 ---------------------------------------------------------------------
    1          6             0       15.000000   15.000000   14.228945
    2          6             0       15.000000   15.000000   15.771055
    3          1             0       16.013527   15.000000   13.843782
    4          1             0       13.986473   15.000000   16.156218
    5          1             0       15.506763   14.122260   16.156219
    6          1             0       15.506763   15.877740   16.156219
    7          1             0       14.493237   14.122260   13.843781
    8          1             0       14.493237   15.877740   13.843781
 ---------------------------------------------------------------------
 SCF Done:  E(RHF) =  -78.7939479068     A.U. after    6 cycles
                          Input orientation:                          
 ---------------------------------------------------------------------
 Center     Atomic     Atomic              Coordinates (Angstroms)
 Number     Number      Type              X           Y           Z
 ---------------------------------------------------------------------
    1          6             0       15.000000   15.000000   14.228795
    2          6             0       15.000000   15.000000   15.771205
    3          1             0       16.013504   15.000000   13.843906
    4          1             0       13.986496   15.000000   16.156094
    5          1             0       15.506751   14.122280   16.156094
    6          1             0       15.506752   15.877720   16.156094
    7          1             0       14.493249   14.122280   13.843906
    8          1             0       14.493248   15.877720   13.843906
 ---------------------------------------------------------------------
 SCF Done:  E(RHF) =  -78.7939480304     A.U. after    6 cycles
    -- Stationary point found.
                          Input orientation:                          
 ---------------------------------------------------------------------
 Center     Atomic     Atomic              Coordinates (Angstroms)
 Number     Number      Type              X           Y           Z
 ---------------------------------------------------------------------
    1          6             0       15.004129   14.997024   14.228801
    2          6             0       14.995871   14.997024   15.771199
    3          1             0       16.017291   14.998672   13.843030
    4          1             0       13.982709   14.998672   16.156970
    5          1             0       15.515786   14.128293   16.158932
    6          1             0       15.503149   15.876011   16.152475
    7          1             0       14.484214   14.128293   13.841068
    8          1             0       14.496851   15.876011   13.847525
 ---------------------------------------------------------------------
 SCF Done:  E(RHF) =  -78.7938832288     A.U. after    7 cycles
                          Input orientation:                          
 ---------------------------------------------------------------------
 Center     Atomic     Atomic              Coordinates (Angstroms)
 Number     Number      Type              X           Y           Z
 ---------------------------------------------------------------------
    1          6             0       15.000068   14.999275   14.228775
    2          6             0       14.999932   14.999275   15.771225
    3          1             0       16.013322   14.984714   13.845474
    4          1             0       13.986678   14.984714   16.154526
    5          1             0       15.521657   14.130915   16.157519
    6          1             0       15.493701   15.885096   16.156215
    7          1             0       14.478343   14.130915   13.842481
    8          1             0       14.506299   15.885096   13.843785
 ---------------------------------------------------------------------
 SCF Done:  E(RHF) =  -78.7939343459     A.U. after    7 cycles
                          Input orientation:                          
 ---------------------------------------------------------------------
 Center     Atomic     Atomic              Coordinates (Angstroms)
 Number     Number      Type              X           Y           Z
 ---------------------------------------------------------------------
    1          6             0       15.000594   14.999629   14.228775
    2          6             0       14.999406   14.999629   15.771225
    3          1             0       16.013840   14.984247   13.843654
    4          1             0       13.986160   14.984247   16.156346
    5          1             0       15.521104   14.130881   16.156410
    6          1             0       15.492769   15.885242   16.155614
    7          1             0       14.478896   14.130881   13.843590
    8          1             0       14.507231   15.885242   13.844386
 ---------------------------------------------------------------------
 SCF Done:  E(RHF) =  -78.7939366250     A.U. after    6 cycles
                          Input orientation:                          
 ---------------------------------------------------------------------
 Center     Atomic     Atomic              Coordinates (Angstroms)
 Number     Number      Type              X           Y           Z
 ---------------------------------------------------------------------
    1          6             0       15.000498   14.999566   14.228775
    2          6             0       14.999502   14.999566   15.771225
    3          1             0       16.013830   14.984489   13.843942
    4          1             0       13.986170   14.984489   16.156058
    5          1             0       15.521212   14.130878   16.156629
    6          1             0       15.492974   15.885067   16.155696
    7          1             0       14.478788   14.130878   13.843371
    8          1             0       14.507026   15.885067   13.844304
 ---------------------------------------------------------------------
 SCF Done:  E(RHF) =  -78.7939367089     A.U. after    5 cycles
    -- Stationary point found.
                          Input orientation:                          
 ---------------------------------------------------------------------
 Center     Atomic     Atomic              Coordinates (Angstroms)
 Number     Number      Type              X           Y           Z
 ---------------------------------------------------------------------
    1          6             0       15.004591   14.996503   14.228788
    2          6             0       14.995409   14.996503   15.771212
    3          1             0       16.017575   14.983103   13.843005
    4          1             0       13.982425   14.983103   16.156995
    5          1             0       15.530138   14.137069   16.159523
    6          1             0       15.489416   15.883325   16.151978
    7          1             0       14.469862   14.137069   13.840477
    8          1             0       14.510584   15.883325   13.848022
 ---------------------------------------------------------------------
 SCF Done:  E(RHF) =  -78.7938493185     A.U. after    8 cycles
                          Input orientation:                          
 ---------------------------------------------------------------------
 Center     Atomic     Atomic              Coordinates (Angstroms)
 Number     Number      Type              X           Y           Z
 ---------------------------------------------------------------------
    1          6             0       15.000995   14.999104   14.228750
    2          6             0       14.999005   14.999104   15.771250
    3          1             0       16.013947   14.969016   13.843914
    4          1             0       13.986053   14.969016   16.156086
    5          1             0       15.535508   14.139722   16.157268
    6          1             0       15.479105   15.892159   16.155230
    7          1             0       14.464492   14.139722   13.842732
    8          1             0       14.520895   15.892159   13.844770
 ---------------------------------------------------------------------
 SCF Done:  E(RHF) =  -78.7939028340     A.U. after    7 cycles
                          Input orientation:                          
 ---------------------------------------------------------------------
 Center     Atomic     Atomic              Coordinates (Angstroms)
 Number     Number      Type              X           Y           Z
 ---------------------------------------------------------------------
    1          6             0       15.001000   14.999110   14.228728
    2          6             0       14.999000   14.999110   15.771272
    3          1             0       16.013891   14.968932   13.843894
    4          1             0       13.986109   14.968932   16.156106
    5          1             0       15.535495   14.139736   16.157225
    6          1             0       15.479077   15.892223   16.155345
    7          1             0       14.464505   14.139736   13.842775
    8          1             0       14.520923   15.892223   13.844655
 ---------------------------------------------------------------------
 SCF Done:  E(RHF) =  -78.7939028461     A.U. after    6 cycles
    -- Stationary point found.
                          Input orientation:                          
 ---------------------------------------------------------------------
 Center     Atomic     Atomic              Coordinates (Angstroms)
 Number     Number      Type              X           Y           Z
 ---------------------------------------------------------------------
    1          6             0       15.005044   14.995954   14.228744
    2          6             0       14.994956   14.995954   15.771256
    3          1             0       16.017609   14.967548   13.842905
    4          1             0       13.982391   14.967548   16.157095
    5          1             0       15.544324   14.146097   16.160207
    6          1             0       15.475576   15.890400   16.151506
    7          1             0       14.455676   14.146097   13.839793
    8          1             0       14.524424   15.890400   13.848494
 ---------------------------------------------------------------------
 SCF Done:  E(RHF) =  -78.7937928319     A.U. after    8 cycles
                          Input orientation:                          
 ---------------------------------------------------------------------
 Center     Atomic     Atomic              Coordinates (Angstroms)
 Number     Number      Type              X           Y           Z
 ---------------------------------------------------------------------
    1          6             0       15.001480   14.998658   14.228642
    2          6             0       14.998520   14.998658   15.771358
    3          1             0       16.013686   14.953379   13.843721
    4          1             0       13.986314   14.953379   16.156279
    5          1             0       15.549671   14.148817   16.157857
    6          1             0       15.464940   15.899146   16.155069
    7          1             0       14.450329   14.148817   13.842143
    8          1             0       14.535060   15.899146   13.844931
 ---------------------------------------------------------------------
 SCF Done:  E(RHF) =  -78.7938467475     A.U. after    8 cycles
                          Input orientation:                          
 ---------------------------------------------------------------------
 Center     Atomic     Atomic              Coordinates (Angstroms)
 Number     Number      Type              X           Y           Z
 ---------------------------------------------------------------------
    1          6             0       15.001473   14.998646   14.228651
    2          6             0       14.998527   14.998646   15.771349
    3          1             0       16.013701   14.953342   13.843772
    4          1             0       13.986299   14.953342   16.156228
    5          1             0       15.549647   14.148858   16.157898
    6          1             0       15.465026   15.899155   16.155038
    7          1             0       14.450353   14.148858   13.842102
    8          1             0       14.534974   15.899155   13.844962
 ---------------------------------------------------------------------
 SCF Done:  E(RHF) =  -78.7938467534     A.U. after    5 cycles
                          Input orientation:                          
 ---------------------------------------------------------------------
 Center     Atomic     Atomic              Coordinates (Angstroms)
 Number     Number      Type              X           Y           Z
 ---------------------------------------------------------------------
    1          6             0       15.001469   14.998643   14.228649
    2          6             0       14.998531   14.998643   15.771351
    3          1             0       16.013689   14.953338   13.843764
    4          1             0       13.986311   14.953338   16.156236
    5          1             0       15.549658   14.148850   16.157898
    6          1             0       15.464992   15.899169   16.155036
    7          1             0       14.450342   14.148850   13.842102
    8          1             0       14.535008   15.899169   13.844964
 ---------------------------------------------------------------------
 SCF Done:  E(RHF) =  -78.7938467522     A.U. after    4 cycles
    -- Stationary point found.
                          Input orientation:                          
 ---------------------------------------------------------------------
 Center     Atomic     Atomic              Coordinates (Angstroms)
 Number     Number      Type              X           Y           Z
 ---------------------------------------------------------------------
    1          6             0       15.005469   14.995407   14.228667
    2          6             0       14.994531   14.995407   15.771333
    3          1             0       16.017364   14.951890   13.842722
    4          1             0       13.982636   14.951890   16.157278
    5          1             0       15.558374   14.155397   16.160940
    6          1             0       15.461554   15.897306   16.151100
    7          1             0       14.441626   14.155397   13.839060
    8          1             0       14.538446   15.897306   13.848900
 ---------------------------------------------------------------------
 SCF Done:  E(RHF) =  -78.7937149724     A.U. after    8 cycles
                          Input orientation:                          
 ---------------------------------------------------------------------
 Center     Atomic     Atomic              Coordinates (Angstroms)
 Number     Number      Type              X           Y           Z
 ---------------------------------------------------------------------
    1          6             0       15.001920   14.998107   14.228550
    2          6             0       14.998080   14.998107   15.771450
    3          1             0       16.013278   14.937834   13.843523
    4          1             0       13.986722   14.937834   16.156477
    5          1             0       15.563627   14.158220   16.158703
    6          1             0       15.450821   15.905838   16.154667
    7          1             0       14.436373   14.158221   13.841297
    8          1             0       14.549178   15.905839   13.845332
 ---------------------------------------------------------------------
 SCF Done:  E(RHF) =  -78.7937689396     A.U. after    8 cycles
                          Input orientation:                          
 ---------------------------------------------------------------------
 Center     Atomic     Atomic              Coordinates (Angstroms)
 Number     Number      Type              X           Y           Z
 ---------------------------------------------------------------------
    1          6             0       15.001927   14.998163   14.228541
    2          6             0       14.998073   14.998163   15.771459
    3          1             0       16.013229   14.937705   13.843573
    4          1             0       13.986771   14.937705   16.156427
    5          1             0       15.563646   14.158234   16.158659
    6          1             0       15.450816   15.905897   16.154759
    7          1             0       14.436354   14.158234   13.841341
    8          1             0       14.549184   15.905897   13.845241
 ---------------------------------------------------------------------
 SCF Done:  E(RHF) =  -78.7937689496     A.U. after    6 cycles
                          Input orientation:                          
 ---------------------------------------------------------------------
 Center     Atomic     Atomic              Coordinates (Angstroms)
 Number     Number      Type              X           Y           Z
 ---------------------------------------------------------------------
    1          6             0       15.001933   14.998150   14.228541
    2          6             0       14.998067   14.998150   15.771459
    3          1             0       16.013240   14.937754   13.843570
    4          1             0       13.986760   14.937754   16.156430
    5          1             0       15.563635   14.158224   16.158670
    6          1             0       15.450841   15.905872   16.154747
    7          1             0       14.436365   14.158224   13.841331
    8          1             0       14.549159   15.905872   13.845252
 ---------------------------------------------------------------------
 SCF Done:  E(RHF) =  -78.7937689472     A.U. after    5 cycles
                          Input orientation:                          
 ---------------------------------------------------------------------
 Center     Atomic     Atomic              Coordinates (Angstroms)
 Number     Number      Type              X           Y           Z
 ---------------------------------------------------------------------
    1          6             0       15.001928   14.998167   14.228541
    2          6             0       14.998072   14.998167   15.771459
    3          1             0       16.013231   14.937703   13.843571
    4          1             0       13.986769   14.937703   16.156429
    5          1             0       15.563647   14.158235   16.158652
    6          1             0       15.450815   15.905895   16.154767
    7          1             0       14.436353   14.158235   13.841348
    8          1             0       14.549185   15.905895   13.845233
 ---------------------------------------------------------------------
 SCF Done:  E(RHF) =  -78.7937689464     A.U. after    5 cycles
    -- Stationary point found.
                          Input orientation:                          
 ---------------------------------------------------------------------
 Center     Atomic     Atomic              Coordinates (Angstroms)
 Number     Number      Type              X           Y           Z
 ---------------------------------------------------------------------
    1          6             0       15.005875   14.994846   14.228560
    2          6             0       14.994125   14.994846   15.771440
    3          1             0       16.016855   14.936205   13.842461
    4          1             0       13.983145   14.936205   16.157539
    5          1             0       15.572264   14.164953   16.161743
    6          1             0       15.447397   15.903996   16.150733
    7          1             0       14.427736   14.164953   13.838257
    8          1             0       14.552603   15.903996   13.849267
 ---------------------------------------------------------------------
 SCF Done:  E(RHF) =  -78.7936158325     A.U. after    8 cycles
                          Input orientation:                          
 ---------------------------------------------------------------------
 Center     Atomic     Atomic              Coordinates (Angstroms)
 Number     Number      Type              X           Y           Z
 ---------------------------------------------------------------------
    1          6             0       15.003201   14.996969   14.228454
    2          6             0       14.996800   14.996943   15.771546
    3          1             0       16.013562   14.925488   13.843081
    4          1             0       13.986438   14.925479   16.156919
    5          1             0       15.576228   14.167144   16.160140
    6          1             0       15.439113   15.910401   16.153503
    7          1             0       14.423776   14.167159   13.839898
    8          1             0       14.560882   15.910417   13.846458
 ---------------------------------------------------------------------
 SCF Done:  E(RHF) =  -78.7936669132     A.U. after    7 cycles
                          Input orientation:                          
 ---------------------------------------------------------------------
 Center     Atomic     Atomic              Coordinates (Angstroms)
 Number     Number      Type              X           Y           Z
 ---------------------------------------------------------------------
    1          6             0       15.002357   14.997685   14.228404
    2          6             0       14.997642   14.997701   15.771596
    3          1             0       16.012489   14.921979   13.843300
    4          1             0       13.987512   14.921984   16.156700
    5          1             0       15.577495   14.167891   16.159439
    6          1             0       15.436449   15.912444   16.154566
    7          1             0       14.422502   14.167881   13.840539
    8          1             0       14.563553   15.912435   13.845457
 ---------------------------------------------------------------------
 SCF Done:  E(RHF) =  -78.7936701528     A.U. after    7 cycles
    -- Stationary point found.
                          Input orientation:                          
 ---------------------------------------------------------------------
 Center     Atomic     Atomic              Coordinates (Angstroms)
 Number     Number      Type              X           Y           Z
 ---------------------------------------------------------------------
    1          6             0       15.006256   14.994286   14.228422
    2          6             0       14.993745   14.994279   15.771578
    3          1             0       16.016069   14.920456   13.842121
    4          1             0       13.983931   14.920454   16.157879
    5          1             0       15.586003   14.174767   16.162604
    6          1             0       15.433076   15.910491   16.150414
    7          1             0       14.413998   14.174771   13.837406
    8          1             0       14.566923   15.910496   13.849576
 ---------------------------------------------------------------------
 SCF Done:  E(RHF) =  -78.7934965073     A.U. after    8 cycles
                          Input orientation:                          
 ---------------------------------------------------------------------
 Center     Atomic     Atomic              Coordinates (Angstroms)
 Number     Number      Type              X           Y           Z
 ---------------------------------------------------------------------
    1          6             0       15.002767   14.997187   14.228252
    2          6             0       14.997237   14.997115   15.771748
    3          1             0       16.011490   14.906384   13.842947
    4          1             0       13.988508   14.906363   16.157053
    5          1             0       15.591181   14.177727   16.160455
    6          1             0       15.421970   15.918704   16.154263
    7          1             0       14.408832   14.177770   13.839650
    8          1             0       14.578016   15.918749   13.845632
 ---------------------------------------------------------------------
 SCF Done:  E(RHF) =  -78.7935512823     A.U. after    8 cycles
                          Input orientation:                          
 ---------------------------------------------------------------------
 Center     Atomic     Atomic              Coordinates (Angstroms)
 Number     Number      Type              X           Y           Z
 ---------------------------------------------------------------------
    1          6             0       15.002753   14.997199   14.228232
    2          6             0       14.997245   14.997230   15.771768
    3          1             0       16.011459   14.906186   13.842948
    4          1             0       13.988542   14.906197   16.157052
    5          1             0       15.591204   14.177803   16.160278
    6          1             0       15.421891   15.918811   16.154433
    7          1             0       14.408791   14.177783   13.839675
    8          1             0       14.578115   15.918791   13.845613
 ---------------------------------------------------------------------
 SCF Done:  E(RHF) =  -78.7935512893     A.U. after    5 cycles
                          Input orientation:                          
 ---------------------------------------------------------------------
 Center     Atomic     Atomic              Coordinates (Angstroms)
 Number     Number      Type              X           Y           Z
 ---------------------------------------------------------------------
    1          6             0       15.002765   14.997201   14.228234
    2          6             0       14.997236   14.997194   15.771767
    3          1             0       16.011473   14.906250   13.842949
    4          1             0       13.988526   14.906254   16.157051
    5          1             0       15.591191   14.177778   16.160323
    6          1             0       15.421929   15.918770   16.154386
    7          1             0       14.408813   14.177781   13.839683
    8          1             0       14.578068   15.918773   13.845608
 ---------------------------------------------------------------------
 SCF Done:  E(RHF) =  -78.7935512870     A.U. after    5 cycles
                          Input orientation:                          
 ---------------------------------------------------------------------
 Center     Atomic     Atomic              Coordinates (Angstroms)
 Number     Number      Type              X           Y           Z
 ---------------------------------------------------------------------
    1          6             0       15.002755   14.997215   14.228232
    2          6             0       14.997245   14.997214   15.771768
    3          1             0       16.011459   14.906190   13.842949
    4          1             0       13.988541   14.906190   16.157051
    5          1             0       15.591207   14.177793   16.160302
    6          1             0       15.421888   15.918802   16.154408
    7          1             0       14.408793   14.177793   13.839700
    8          1             0       14.578112   15.918803   13.845590
 ---------------------------------------------------------------------
 SCF Done:  E(RHF) =  -78.7935512855     A.U. after    5 cycles
    -- Stationary point found.
                          Input orientation:                          
 ---------------------------------------------------------------------
 Center     Atomic     Atomic              Coordinates (Angstroms)
 Number     Number      Type              X           Y           Z
 ---------------------------------------------------------------------
    1          6             0       15.006604   14.993725   14.228255
    2          6             0       14.993396   14.993726   15.771745
    3          1             0       16.014995   14.904615   13.841705
    4          1             0       13.985005   14.904615   16.158295
    5          1             0       15.599595   14.184849   16.163494
    6          1             0       15.418570   15.916810   16.150166
    7          1             0       14.400405   14.184849   13.836506
    8          1             0       14.581430   15.916810   13.849834
 ---------------------------------------------------------------------
 SCF Done:  E(RHF) =  -78.7933581896     A.U. after    8 cycles
                          Input orientation:                          
 ---------------------------------------------------------------------
 Center     Atomic     Atomic              Coordinates (Angstroms)
 Number     Number      Type              X           Y           Z
 ---------------------------------------------------------------------
    1          6             0       15.004396   14.995674   14.228106
    2          6             0       14.995601   14.995682   15.771892
    3          1             0       16.011936   14.895433   13.842217
    4          1             0       13.988067   14.895424   16.157793
    5          1             0       15.602882   14.186849   16.161971
    6          1             0       15.411308   15.922043   16.152835
    7          1             0       14.397113   14.186851   13.838029
    8          1             0       14.588697   15.922044   13.847158
 ---------------------------------------------------------------------
 SCF Done:  E(RHF) =  -78.7934062328     A.U. after    7 cycles
                          Input orientation:                          
 ---------------------------------------------------------------------
 Center     Atomic     Atomic              Coordinates (Angstroms)
 Number     Number      Type              X           Y           Z
 ---------------------------------------------------------------------
    1          6             0       15.003121   14.996748   14.228044
    2          6             0       14.996879   14.996749   15.771956
    3          1             0       16.010135   14.890298   13.842539
    4          1             0       13.989866   14.890297   16.157463
    5          1             0       15.604765   14.187974   16.161196
    6          1             0       15.407150   15.924980   16.154304
    7          1             0       14.395234   14.187973   13.838804
    8          1             0       14.592850   15.924980   13.845695
 ---------------------------------------------------------------------
 SCF Done:  E(RHF) =  -78.7934134694     A.U. after    7 cycles
    -- Stationary point found.
                          Input orientation:                          
 ---------------------------------------------------------------------
 Center     Atomic     Atomic              Coordinates (Angstroms)
 Number     Number      Type              X           Y           Z
 ---------------------------------------------------------------------
    1          6             0       15.006921   14.993179   14.228059
    2          6             0       14.993079   14.993180   15.771941
    3          1             0       16.013627   14.888684   13.841213
    4          1             0       13.986373   14.888684   16.158787
    5          1             0       15.613038   14.195192   16.164419
    6          1             0       15.403875   15.922945   16.149978
    7          1             0       14.386962   14.195192   13.835581
    8          1             0       14.596125   15.922945   13.850022
 ---------------------------------------------------------------------
 SCF Done:  E(RHF) =  -78.7932021043     A.U. after    8 cycles
                          Input orientation:                          
 ---------------------------------------------------------------------
 Center     Atomic     Atomic              Coordinates (Angstroms)
 Number     Number      Type              X           Y           Z
 ---------------------------------------------------------------------
    1          6             0       15.003472   14.996242   14.227827
    2          6             0       14.996529   14.996241   15.772173
    3          1             0       16.008556   14.874492   13.842023
    4          1             0       13.991443   14.874495   16.157975
    5          1             0       15.618143   14.198372   16.162192
    6          1             0       15.392299   15.930893   16.154226
    7          1             0       14.381859   14.198372   13.837808
    8          1             0       14.607699   15.930894   13.845775
 ---------------------------------------------------------------------
 SCF Done:  E(RHF) =  -78.7932580143     A.U. after    8 cycles
                          Input orientation:                          
 ---------------------------------------------------------------------
 Center     Atomic     Atomic              Coordinates (Angstroms)
 Number     Number      Type              X           Y           Z
 ---------------------------------------------------------------------
    1          6             0       15.003455   14.996306   14.227810
    2          6             0       14.996545   14.996306   15.772190
    3          1             0       16.008510   14.874292   13.842041
    4          1             0       13.991490   14.874291   16.157959
    5          1             0       15.618186   14.198416   16.162087
    6          1             0       15.392185   15.930987   16.154311
    7          1             0       14.381814   14.198416   13.837913
    8          1             0       14.607815   15.930987   13.845689
 ---------------------------------------------------------------------
 SCF Done:  E(RHF) =  -78.7932580172     A.U. after    5 cycles
                          Input orientation:                          
 ---------------------------------------------------------------------
 Center     Atomic     Atomic              Coordinates (Angstroms)
 Number     Number      Type              X           Y           Z
 ---------------------------------------------------------------------
    1          6             0       15.003467   14.996281   14.227813
    2          6             0       14.996533   14.996281   15.772187
    3          1             0       16.008532   14.874376   13.842042
    4          1             0       13.991468   14.874376   16.157958
    5          1             0       15.618164   14.198397   16.162117
    6          1             0       15.392245   15.930947   16.154281
    7          1             0       14.381837   14.198396   13.837883
    8          1             0       14.607755   15.930947   13.845719
 ---------------------------------------------------------------------
 SCF Done:  E(RHF) =  -78.7932580130     A.U. after    5 cycles
                          Input orientation:                          
 ---------------------------------------------------------------------
 Center     Atomic     Atomic              Coordinates (Angstroms)
 Number     Number      Type              X           Y           Z
 ---------------------------------------------------------------------
    1          6             0       15.003453   14.996302   14.227812
    2          6             0       14.996547   14.996302   15.772188
    3          1             0       16.008509   14.874296   13.842042
    4          1             0       13.991491   14.874296   16.157958
    5          1             0       15.618188   14.198415   16.162095
    6          1             0       15.392184   15.930987   16.154305
    7          1             0       14.381812   14.198415   13.837905
    8          1             0       14.607816   15.930987   13.845695
 ---------------------------------------------------------------------
 SCF Done:  E(RHF) =  -78.7932580114     A.U. after    5 cycles
    -- Stationary point found.
                          Input orientation:                          
 ---------------------------------------------------------------------
 Center     Atomic     Atomic              Coordinates (Angstroms)
 Number     Number      Type              X           Y           Z
 ---------------------------------------------------------------------
    1          6             0       15.007201   14.992652   14.227836
    2          6             0       14.992799   14.992652   15.772164
    3          1             0       16.011953   14.872641   13.840652
    4          1             0       13.988047   14.872642   16.159348
    5          1             0       15.626337   14.205800   16.165364
    6          1             0       15.388969   15.928907   16.149860
    7          1             0       14.373663   14.205800   13.834636
    8          1             0       14.611031   15.928907   13.850140
 ---------------------------------------------------------------------
 SCF Done:  E(RHF) =  -78.7930298176     A.U. after    8 cycles
                          Input orientation:                          
 ---------------------------------------------------------------------
 Center     Atomic     Atomic              Coordinates (Angstroms)
 Number     Number      Type              X           Y           Z
 ---------------------------------------------------------------------
    1          6             0       15.005012   14.994624   14.227683
    2          6             0       14.994989   14.994624   15.772318
    3          1             0       16.008583   14.863602   13.841176
    4          1             0       13.991417   14.863607   16.158820
    5          1             0       15.629567   14.207861   16.164010
    6          1             0       15.381465   15.933910   16.152565
    7          1             0       14.370435   14.207862   13.835990
    8          1             0       14.618532   15.933910   13.847438
 ---------------------------------------------------------------------
 SCF Done:  E(RHF) =  -78.7930785462     A.U. after    7 cycles
                          Input orientation:                          
 ---------------------------------------------------------------------
 Center     Atomic     Atomic              Coordinates (Angstroms)
 Number     Number      Type              X           Y           Z
 ---------------------------------------------------------------------
    1          6             0       15.003750   14.995885   14.227567
    2          6             0       14.996250   14.995885   15.772433
    3          1             0       16.006566   14.858162   13.841492
    4          1             0       13.993433   14.858162   16.158508
    5          1             0       15.631457   14.209137   16.163017
    6          1             0       15.377011   15.936816   16.154362
    7          1             0       14.368543   14.209137   13.836984
    8          1             0       14.622990   15.936816   13.845637
 ---------------------------------------------------------------------
 SCF Done:  E(RHF) =  -78.7930864079     A.U. after    7 cycles
    -- Stationary point found.
                          Input orientation:                          
 ---------------------------------------------------------------------
 Center     Atomic     Atomic              Coordinates (Angstroms)
 Number     Number      Type              X           Y           Z
 ---------------------------------------------------------------------
    1          6             0       15.007444   14.992148   14.227588
    2          6             0       14.992556   14.992148   15.772412
    3          1             0       16.009967   14.856485   13.840025
    4          1             0       13.990033   14.856485   16.159975
    5          1             0       15.639488   14.216673   16.166318
    6          1             0       15.373846   15.934694   16.149815
    7          1             0       14.360512   14.216673   13.833682
    8          1             0       14.626154   15.934694   13.850185
 ---------------------------------------------------------------------
 SCF Done:  E(RHF) =  -78.7928429269     A.U. after    8 cycles
                          Input orientation:                          
 ---------------------------------------------------------------------
 Center     Atomic     Atomic              Coordinates (Angstroms)
 Number     Number      Type              X           Y           Z
 ---------------------------------------------------------------------
    1          6             0       15.004017   14.995406   14.227310
    2          6             0       14.995983   14.995405   15.772690
    3          1             0       16.004357   14.842156   13.840867
    4          1             0       13.995643   14.842157   16.159132
    5          1             0       15.644548   14.220059   16.164073
    6          1             0       15.361729   15.942379   16.154389
    7          1             0       14.355453   14.220059   13.835927
    8          1             0       14.638270   15.942379   13.845612
 ---------------------------------------------------------------------
 SCF Done:  E(RHF) =  -78.7929003223     A.U. after    8 cycles
                          Input orientation:                          
 ---------------------------------------------------------------------
 Center     Atomic     Atomic              Coordinates (Angstroms)
 Number     Number      Type              X           Y           Z
 ---------------------------------------------------------------------
    1          6             0       15.004003   14.995488   14.227288
    2          6             0       14.995997   14.995488   15.772711
    3          1             0       16.004302   14.841921   13.840883
    4          1             0       13.995698   14.841921   16.159117
    5          1             0       15.644595   14.220112   16.163938
    6          1             0       15.361589   15.942479   16.154501
    7          1             0       14.355405   14.220112   13.836062
    8          1             0       14.638411   15.942479   13.845498
 ---------------------------------------------------------------------
 SCF Done:  E(RHF) =  -78.7929003284     A.U. after    5 cycles
                          Input orientation:                          
 ---------------------------------------------------------------------
 Center     Atomic     Atomic              Coordinates (Angstroms)
 Number     Number      Type              X           Y           Z
 ---------------------------------------------------------------------
    1          6             0       15.004016   14.995462   14.227291
    2          6             0       14.995984   14.995462   15.772709
    3          1             0       16.004330   14.842007   13.840884
    4          1             0       13.995670   14.842007   16.159116
    5          1             0       15.644571   14.220092   16.163964
    6          1             0       15.361656   15.942439   16.154470
    7          1             0       14.355429   14.220092   13.836036
    8          1             0       14.638344   15.942439   13.845530
 ---------------------------------------------------------------------
 SCF Done:  E(RHF) =  -78.7929003230     A.U. after    5 cycles
                          Input orientation:                          
 ---------------------------------------------------------------------
 Center     Atomic     Atomic              Coordinates (Angstroms)
 Number     Number      Type              X           Y           Z
 ---------------------------------------------------------------------
    1          6             0       15.004002   14.995487   14.227289
    2          6             0       14.995998   14.995487   15.772711
    3          1             0       16.004302   14.841922   13.840884
    4          1             0       13.995698   14.841922   16.159116
    5          1             0       15.644596   14.220112   16.163939
    6          1             0       15.361590   15.942479   16.154499
    7          1             0       14.355404   14.220112   13.836061
    8          1             0       14.638410   15.942479   13.845501
 ---------------------------------------------------------------------
 SCF Done:  E(RHF) =  -78.7929003209     A.U. after    5 cycles
    -- Stationary point found.
                          Input orientation:                          
 ---------------------------------------------------------------------
 Center     Atomic     Atomic              Coordinates (Angstroms)
 Number     Number      Type              X           Y           Z
 ---------------------------------------------------------------------
    1          6             0       15.007644   14.991677   14.227315
    2          6             0       14.992356   14.991678   15.772685
    3          1             0       16.007653   14.840193   13.839338
    4          1             0       13.992347   14.840193   16.160662
    5          1             0       15.652497   14.227815   16.167267
    6          1             0       15.358483   15.940315   16.149851
    7          1             0       14.347503   14.227814   13.832733
    8          1             0       14.641517   15.940315   13.850149
 ---------------------------------------------------------------------
 SCF Done:  E(RHF) =  -78.7926433764     A.U. after    8 cycles
                          Input orientation:                          
 ---------------------------------------------------------------------
 Center     Atomic     Atomic              Coordinates (Angstroms)
 Number     Number      Type              X           Y           Z
 ---------------------------------------------------------------------
    1          6             0       15.005529   14.993754   14.227128
    2          6             0       14.994471   14.993753   15.772873
    3          1             0       16.004021   14.831239   13.839851
    4          1             0       13.995979   14.831237   16.160147
    5          1             0       15.655617   14.229974   16.165893
    6          1             0       15.350798   15.945036   16.152743
    7          1             0       14.344381   14.229974   13.834108
    8          1             0       14.649203   15.945033   13.847257
 ---------------------------------------------------------------------
 SCF Done:  E(RHF) =  -78.7926928498     A.U. after    7 cycles
                          Input orientation:                          
 ---------------------------------------------------------------------
 Center     Atomic     Atomic              Coordinates (Angstroms)
 Number     Number      Type              X           Y           Z
 ---------------------------------------------------------------------
    1          6             0       15.004219   14.995135   14.227000
    2          6             0       14.995781   14.995135   15.773000
    3          1             0       16.001697   14.825523   13.840225
    4          1             0       13.998304   14.825524   16.159775
    5          1             0       15.657578   14.231375   16.164861
    6          1             0       15.345933   15.947966   16.154710
    7          1             0       14.342422   14.231375   13.835139
    8          1             0       14.654067   15.947966   13.845290
 ---------------------------------------------------------------------
 SCF Done:  E(RHF) =  -78.7927015987     A.U. after    7 cycles
    -- Stationary point found.
                          Input orientation:                          
 ---------------------------------------------------------------------
 Center     Atomic     Atomic              Coordinates (Angstroms)
 Number     Number      Type              X           Y           Z
 ---------------------------------------------------------------------
    1          6             0       15.007805   14.991243   14.227021
    2          6             0       14.992195   14.991243   15.772979
    3          1             0       16.005004   14.823771   13.838597
    4          1             0       13.994996   14.823771   16.161403
    5          1             0       15.665358   14.239223   16.168205
    6          1             0       15.342878   15.945763   16.149966
    7          1             0       14.334642   14.239223   13.831795
    8          1             0       14.657122   15.945762   13.850034
 ---------------------------------------------------------------------
 SCF Done:  E(RHF) =  -78.7924330469     A.U. after    8 cycles
                          Input orientation:                          
 ---------------------------------------------------------------------
 Center     Atomic     Atomic              Coordinates (Angstroms)
 Number     Number      Type              X           Y           Z
 ---------------------------------------------------------------------
    1          6             0       15.004405   14.994733   14.226698
    2          6             0       14.995595   14.994732   15.773302
    3          1             0       15.998818   14.809258   13.839492
    4          1             0       14.001182   14.809256   16.160508
    5          1             0       15.670375   14.242837   16.165897
    6          1             0       15.330168   15.953174   16.154911
    7          1             0       14.329624   14.242838   13.834105
    8          1             0       14.669833   15.953173   13.845088
 ---------------------------------------------------------------------
 SCF Done:  E(RHF) =  -78.7924922245     A.U. after    8 cycles
                          Input orientation:                          
 ---------------------------------------------------------------------
 Center     Atomic     Atomic              Coordinates (Angstroms)
 Number     Number      Type              X           Y           Z
 ---------------------------------------------------------------------
    1          6             0       15.004388   14.994819   14.226680
    2          6             0       14.995612   14.994819   15.773320
    3          1             0       15.998749   14.809001   13.839524
    4          1             0       14.001251   14.809001   16.160476
    5          1             0       15.670431   14.242894   16.165751
    6          1             0       15.330003   15.953286   16.155014
    7          1             0       14.329570   14.242894   13.834249
    8          1             0       14.669996   15.953286   13.844986
 ---------------------------------------------------------------------
 SCF Done:  E(RHF) =  -78.7924922321     A.U. after    5 cycles
                          Input orientation:                          
 ---------------------------------------------------------------------
 Center     Atomic     Atomic              Coordinates (Angstroms)
 Number     Number      Type              X           Y           Z
 ---------------------------------------------------------------------
    1          6             0       15.004403   14.994793   14.226681
    2          6             0       14.995597   14.994793   15.773319
    3          1             0       15.998781   14.809088   13.839523
    4          1             0       14.001219   14.809088   16.160477
    5          1             0       15.670406   14.242872   16.165776
    6          1             0       15.330075   15.953246   16.154983
    7          1             0       14.329594   14.242872   13.834224
    8          1             0       14.669925   15.953246   13.845016
 ---------------------------------------------------------------------
 SCF Done:  E(RHF) =  -78.7924922260     A.U. after    5 cycles
                          Input orientation:                          
 ---------------------------------------------------------------------
 Center     Atomic     Atomic              Coordinates (Angstroms)
 Number     Number      Type              X           Y           Z
 ---------------------------------------------------------------------
    1          6             0       15.004388   14.994819   14.226679
    2          6             0       14.995612   14.994819   15.773321
    3          1             0       15.998749   14.809001   13.839524
    4          1             0       14.001251   14.809001   16.160476
    5          1             0       15.670431   14.242894   16.165752
    6          1             0       15.330004   15.953286   16.155013
    7          1             0       14.329569   14.242894   13.834248
    8          1             0       14.669996   15.953286   13.844987
 ---------------------------------------------------------------------
 SCF Done:  E(RHF) =  -78.7924922236     A.U. after    5 cycles
    -- Stationary point found.
                          Input orientation:                          
 ---------------------------------------------------------------------
 Center     Atomic     Atomic              Coordinates (Angstroms)
 Number     Number      Type              X           Y           Z
 ---------------------------------------------------------------------
    1          6             0       15.007920   14.990856   14.226707
    2          6             0       14.992080   14.990856   15.773293
    3          1             0       16.002004   14.807199   13.837810
    4          1             0       13.997996   14.807200   16.162190
    5          1             0       15.678077   14.250902   16.169116
    6          1             0       15.327008   15.951043   16.150167
    7          1             0       14.321923   14.250902   13.830884
    8          1             0       14.672992   15.951043   13.849833
 ---------------------------------------------------------------------
 SCF Done:  E(RHF) =  -78.7922142005     A.U. after    8 cycles
                          Input orientation:                          
 ---------------------------------------------------------------------
 Center     Atomic     Atomic              Coordinates (Angstroms)
 Number     Number      Type              X           Y           Z
 ---------------------------------------------------------------------
    1          6             0       15.005874   14.993024   14.226500
    2          6             0       14.994126   14.993023   15.773500
    3          1             0       15.998103   14.798351   13.838348
    4          1             0       14.001895   14.798349   16.161652
    5          1             0       15.681093   14.253151   16.167736
    6          1             0       15.319144   15.955477   16.153208
    7          1             0       14.318905   14.253148   13.832264
    8          1             0       14.680859   15.955476   13.846792
 ---------------------------------------------------------------------
 SCF Done:  E(RHF) =  -78.7922645336     A.U. after    7 cycles
                          Input orientation:                          
 ---------------------------------------------------------------------
 Center     Atomic     Atomic              Coordinates (Angstroms)
 Number     Number      Type              X           Y           Z
 ---------------------------------------------------------------------
    1          6             0       15.004520   14.994560   14.226355
    2          6             0       14.995481   14.994560   15.773645
    3          1             0       15.995434   14.792311   13.838783
    4          1             0       14.004567   14.792312   16.161216
    5          1             0       15.683123   14.254703   16.166629
    6          1             0       15.313815   15.958426   16.155392
    7          1             0       14.316877   14.254703   13.833371
    8          1             0       14.686183   15.958425   13.844609
 ---------------------------------------------------------------------
 SCF Done:  E(RHF) =  -78.7922743413     A.U. after    7 cycles
    -- Stationary point found.
                          Input orientation:                          
 ---------------------------------------------------------------------
 Center     Atomic     Atomic              Coordinates (Angstroms)
 Number     Number      Type              X           Y           Z
 ---------------------------------------------------------------------
    1          6             0       15.007993   14.990516   14.226376
    2          6             0       14.992007   14.990516   15.773624
    3          1             0       15.998645   14.790488   13.836985
    4          1             0       14.001355   14.790488   16.163015
    5          1             0       15.690645   14.262849   16.169996
    6          1             0       15.310874   15.956146   16.150449
    7          1             0       14.309355   14.262849   13.830004
    8          1             0       14.689126   15.956146   13.849551
 ---------------------------------------------------------------------
 SCF Done:  E(RHF) =  -78.7919889813     A.U. after    8 cycles
                          Input orientation:                          
 ---------------------------------------------------------------------
 Center     Atomic     Atomic              Coordinates (Angstroms)
 Number     Number      Type              X           Y           Z
 ---------------------------------------------------------------------
    1          6             0       15.004621   14.994255   14.226020
    2          6             0       14.995379   14.994255   15.773980
    3          1             0       15.991838   14.775769   13.837982
    4          1             0       14.008161   14.775767   16.162020
    5          1             0       15.695624   14.266706   16.167605
    6          1             0       15.297524   15.963271   16.155761
    7          1             0       14.304376   14.266705   13.832395
    8          1             0       14.702478   15.963272   13.844238
 ---------------------------------------------------------------------
 SCF Done:  E(RHF) =  -78.7920502019     A.U. after    8 cycles
                          Input orientation:                          
 ---------------------------------------------------------------------
 Center     Atomic     Atomic              Coordinates (Angstroms)
 Number     Number      Type              X           Y           Z
 ---------------------------------------------------------------------
    1          6             0       15.004602   14.994347   14.226004
    2          6             0       14.995398   14.994348   15.773996
    3          1             0       15.991755   14.775493   13.838025
    4          1             0       14.008245   14.775493   16.161975
    5          1             0       15.695685   14.266767   16.167452
    6          1             0       15.297336   15.963393   16.155861
    7          1             0       14.304314   14.266767   13.832548
    8          1             0       14.702664   15.963392   13.844139
 ---------------------------------------------------------------------
 SCF Done:  E(RHF) =  -78.7920502116     A.U. after    5 cycles
                          Input orientation:                          
 ---------------------------------------------------------------------
 Center     Atomic     Atomic              Coordinates (Angstroms)
 Number     Number      Type              X           Y           Z
 ---------------------------------------------------------------------
    1          6             0       15.004616   14.994322   14.226006
    2          6             0       14.995384   14.994322   15.773994
    3          1             0       15.991789   14.775577   13.838023
    4          1             0       14.008210   14.775577   16.161977
    5          1             0       15.695662   14.266746   16.167475
    6          1             0       15.297408   15.963355   16.155831
    7          1             0       14.304338   14.266746   13.832525
    8          1             0       14.702592   15.963355   13.844169
 ---------------------------------------------------------------------
 SCF Done:  E(RHF) =  -78.7920502053     A.U. after    5 cycles
                          Input orientation:                          
 ---------------------------------------------------------------------
 Center     Atomic     Atomic              Coordinates (Angstroms)
 Number     Number      Type              X           Y           Z
 ---------------------------------------------------------------------
    1          6             0       15.004602   14.994347   14.226004
    2          6             0       14.995398   14.994347   15.773996
    3          1             0       15.991756   14.775493   13.838025
    4          1             0       14.008244   14.775493   16.161975
    5          1             0       15.695685   14.266768   16.167453
    6          1             0       15.297337   15.963392   16.155861
    7          1             0       14.304315   14.266768   13.832547
    8          1             0       14.702663   15.963392   13.844139
 ---------------------------------------------------------------------
 SCF Done:  E(RHF) =  -78.7920502027     A.U. after    5 cycles
    -- Stationary point found.
                          Input orientation:                          
 ---------------------------------------------------------------------
 Center     Atomic     Atomic              Coordinates (Angstroms)
 Number     Number      Type              X           Y           Z
 ---------------------------------------------------------------------
    1          6             0       15.008020   14.990235   14.226031
    2          6             0       14.991980   14.990235   15.773969
    3          1             0       15.994911   14.773620   13.836133
    4          1             0       14.005089   14.773620   16.163867
    5          1             0       15.703069   14.275070   16.170831
    6          1             0       15.294454   15.961076   16.150820
    7          1             0       14.296931   14.275069   13.829169
    8          1             0       14.705547   15.961076   13.849180
 ---------------------------------------------------------------------
 SCF Done:  E(RHF) =  -78.7917598971     A.U. after    8 cycles
                          Input orientation:                          
 ---------------------------------------------------------------------
 Center     Atomic     Atomic              Coordinates (Angstroms)
 Number     Number      Type              X           Y           Z
 ---------------------------------------------------------------------
    1          6             0       15.006045   14.992493   14.225814
    2          6             0       14.993955   14.992492   15.774185
    3          1             0       15.990741   14.764888   13.836726
    4          1             0       14.009255   14.764890   16.163277
    5          1             0       15.705982   14.277403   16.169439
    6          1             0       15.286418   15.965216   16.153980
    7          1             0       14.294021   14.277397   13.830558
    8          1             0       14.713584   15.965222   13.846020
 ---------------------------------------------------------------------
 SCF Done:  E(RHF) =  -78.7918111580     A.U. after    7 cycles
                          Input orientation:                          
 ---------------------------------------------------------------------
 Center     Atomic     Atomic              Coordinates (Angstroms)
 Number     Number      Type              X           Y           Z
 ---------------------------------------------------------------------
    1          6             0       15.004647   14.994204   14.225655
    2          6             0       14.995353   14.994204   15.774345
    3          1             0       15.987683   14.758505   13.837240
    4          1             0       14.012318   14.758505   16.162758
    5          1             0       15.708080   14.279124   16.168247
    6          1             0       15.280579   15.968168   16.156407
    7          1             0       14.291919   14.279125   13.831754
    8          1             0       14.719420   15.968166   13.843593
 ---------------------------------------------------------------------
 SCF Done:  E(RHF) =  -78.7918221863     A.U. after    7 cycles
    -- Stationary point found.
                          Input orientation:                          
 ---------------------------------------------------------------------
 Center     Atomic     Atomic              Coordinates (Angstroms)
 Number     Number      Type              X           Y           Z
 ---------------------------------------------------------------------
    1          6             0       15.008003   14.990012   14.225676
    2          6             0       14.991997   14.990013   15.774324
    3          1             0       15.990796   14.756611   13.835263
    4          1             0       14.009204   14.756611   16.164738
    5          1             0       15.715339   14.287558   16.171616
    6          1             0       15.277753   15.965818   16.151269
    7          1             0       14.284661   14.287558   13.828384
    8          1             0       14.722247   15.965818   13.848731
 ---------------------------------------------------------------------
 SCF Done:  E(RHF) =  -78.7915292799     A.U. after    8 cycles
                          Input orientation:                          
 ---------------------------------------------------------------------
 Center     Atomic     Atomic              Coordinates (Angstroms)
 Number     Number      Type              X           Y           Z
 ---------------------------------------------------------------------
    1          6             0       15.004663   14.994018   14.225300
    2          6             0       14.995337   14.994017   15.774699
    3          1             0       15.983324   14.741682   13.836412
    4          1             0       14.016674   14.741682   16.163591
    5          1             0       15.720277   14.291670   16.169127
    6          1             0       15.263728   15.972630   16.156937
    7          1             0       14.279724   14.291667   13.830873
    8          1             0       14.736273   15.972634   13.843061
 ---------------------------------------------------------------------
 SCF Done:  E(RHF) =  -78.7915927359     A.U. after    8 cycles
                          Input orientation:                          
 ---------------------------------------------------------------------
 Center     Atomic     Atomic              Coordinates (Angstroms)
 Number     Number      Type              X           Y           Z
 ---------------------------------------------------------------------
    1          6             0       15.004641   14.994115   14.225287
    2          6             0       14.995359   14.994115   15.774713
    3          1             0       15.983226   14.741393   13.836467
    4          1             0       14.016774   14.741392   16.163533
    5          1             0       15.720343   14.291735   16.168970
    6          1             0       15.263519   15.972758   16.157034
    7          1             0       14.279657   14.291736   13.831030
    8          1             0       14.736481   15.972757   13.842966
 ---------------------------------------------------------------------
 SCF Done:  E(RHF) =  -78.7915927480     A.U. after    5 cycles
                          Input orientation:                          
 ---------------------------------------------------------------------
 Center     Atomic     Atomic              Coordinates (Angstroms)
 Number     Number      Type              X           Y           Z
 ---------------------------------------------------------------------
    1          6             0       15.004654   14.994091   14.225289
    2          6             0       14.995346   14.994091   15.774711
    3          1             0       15.983261   14.741470   13.836465
    4          1             0       14.016739   14.741471   16.163536
[...]
 Center     Atomic     Atomic              Coordinates (Angstroms)
 Number     Number      Type              X           Y           Z
 ---------------------------------------------------------------------
    1          6             0       15.004502   14.993921   14.222544
    2          6             0       14.995501   14.993926   15.777481
    3          1             0       15.929436   14.590419   13.829886
    4          1             0       14.070473   14.590393   16.170092
    5          1             0       15.820674   14.414536   16.173783
    6          1             0       15.105737   16.001150   16.161771
    7          1             0       14.179411   14.414588   13.826213
    8          1             0       14.894266   16.001066   13.838232
 ---------------------------------------------------------------------
 SCF Done:  E(RHF) =  -78.7898585816     A.U. after    7 cycles
                          Input orientation:                          
 ---------------------------------------------------------------------
 Center     Atomic     Atomic              Coordinates (Angstroms)
 Number     Number      Type              X           Y           Z
 ---------------------------------------------------------------------
    1          6             0       15.002984   14.996555   14.222424
    2          6             0       14.997017   14.996555   15.777567
    3          1             0       15.924073   14.582729   13.831296
    4          1             0       14.075963   14.582745   16.168699
    5          1             0       15.822876   14.417223   16.172273
    6          1             0       15.097323   16.003478   16.165112
    7          1             0       14.177094   14.417207   13.827734
    8          1             0       14.902670   16.003508   13.834895
 ---------------------------------------------------------------------
 SCF Done:  E(RHF) =  -78.7898762674     A.U. after    7 cycles
                          Input orientation:                          
 ---------------------------------------------------------------------
 Center     Atomic     Atomic              Coordinates (Angstroms)
 Number     Number      Type              X           Y           Z
 ---------------------------------------------------------------------
    1          6             0       15.002970   14.996547   14.222428
    2          6             0       14.997029   14.996546   15.777574
    3          1             0       15.924061   14.582757   13.831313
    4          1             0       14.075931   14.582752   16.168689
    5          1             0       15.822914   14.417205   16.172267
    6          1             0       15.097319   16.003494   16.165112
    7          1             0       14.177092   14.417209   13.827731
    8          1             0       14.902684   16.003489   13.834887
 ---------------------------------------------------------------------
 SCF Done:  E(RHF) =  -78.7898762695     A.U. after    5 cycles
    -- Stationary point found.
                          Input orientation:                          
 ---------------------------------------------------------------------
 Center     Atomic     Atomic              Coordinates (Angstroms)
 Number     Number      Type              X           Y           Z
 ---------------------------------------------------------------------
    1          6             0       15.005689   14.991705   14.222441
    2          6             0       14.994311   14.991705   15.777559
    3          1             0       15.926640   14.580501   13.828271
    4          1             0       14.073359   14.580500   16.171730
    5          1             0       15.828759   14.426911   16.175339
    6          1             0       15.095089   16.000883   16.159122
    7          1             0       14.171242   14.426912   13.824660
    8          1             0       14.904912   16.000883   13.840878
 ---------------------------------------------------------------------
 SCF Done:  E(RHF) =  -78.7896926875     A.U. after    8 cycles
                          Input orientation:                          
 ---------------------------------------------------------------------
 Center     Atomic     Atomic              Coordinates (Angstroms)
 Number     Number      Type              X           Y           Z
 ---------------------------------------------------------------------
    1          6             0       15.002699   14.997072   14.222221
    2          6             0       14.997301   14.997071   15.777787
    3          1             0       15.915492   14.565260   13.831051
    4          1             0       14.084477   14.565246   16.168950
    5          1             0       15.833265   14.432286   16.172321
    6          1             0       15.077909   16.005394   16.166085
    7          1             0       14.166761   14.432302   13.827675
    8          1             0       14.922095   16.005369   13.833911
 ---------------------------------------------------------------------
 SCF Done:  E(RHF) =  -78.7897664081     A.U. after    8 cycles
                          Input orientation:                          
 ---------------------------------------------------------------------
 Center     Atomic     Atomic              Coordinates (Angstroms)
 Number     Number      Type              X           Y           Z
 ---------------------------------------------------------------------
    1          6             0       15.002657   14.997151   14.222233
    2          6             0       14.997343   14.997150   15.777766
    3          1             0       15.915354   14.565001   13.831166
    4          1             0       14.084646   14.565001   16.168834
    5          1             0       15.833318   14.432371   16.172224
    6          1             0       15.077679   16.005476   16.166104
    7          1             0       14.166680   14.432371   13.827776
    8          1             0       14.922322   16.005478   13.833897
 ---------------------------------------------------------------------
 SCF Done:  E(RHF) =  -78.7897664269     A.U. after    6 cycles
    -- Stationary point found.
                          Input orientation:                          
 ---------------------------------------------------------------------
 Center     Atomic     Atomic              Coordinates (Angstroms)
 Number     Number      Type              X           Y           Z
 ---------------------------------------------------------------------
    1          6             0       15.005313   14.992246   14.222247
    2          6             0       14.994687   14.992245   15.777753
    3          1             0       15.917887   14.562730   13.828005
    4          1             0       14.082112   14.562730   16.171995
    5          1             0       15.839013   14.442179   16.175241
    6          1             0       15.075536   16.002844   16.160035
    7          1             0       14.160987   14.442181   13.824759
    8          1             0       14.924464   16.002845   13.839966
 ---------------------------------------------------------------------
 SCF Done:  E(RHF) =  -78.7896049810     A.U. after    8 cycles
                          Input orientation:                          
 ---------------------------------------------------------------------
 Center     Atomic     Atomic              Coordinates (Angstroms)
 Number     Number      Type              X           Y           Z
 ---------------------------------------------------------------------
    1          6             0       15.002437   14.997798   14.222075
    2          6             0       14.997565   14.997803   15.777943
    3          1             0       15.906359   14.547481   13.831020
    4          1             0       14.093598   14.547470   16.168957
    5          1             0       15.843432   14.447683   16.172008
    6          1             0       15.058050   16.007051   16.167249
    7          1             0       14.156619   14.447726   13.827991
    8          1             0       14.941940   16.006988   13.832757
 ---------------------------------------------------------------------
 SCF Done:  E(RHF) =  -78.7896794387     A.U. after    8 cycles
                          Input orientation:                          
 ---------------------------------------------------------------------
 Center     Atomic     Atomic              Coordinates (Angstroms)
 Number     Number      Type              X           Y           Z
 ---------------------------------------------------------------------
    1          6             0       15.002325   14.997799   14.222080
    2          6             0       14.997674   14.997798   15.777919
    3          1             0       15.906238   14.547327   13.831142
    4          1             0       14.093764   14.547327   16.168863
    5          1             0       15.843499   14.447750   16.172116
    6          1             0       15.057897   16.007123   16.167046
    7          1             0       14.156496   14.447747   13.827881
    8          1             0       14.942108   16.007130   13.832953
 ---------------------------------------------------------------------
 SCF Done:  E(RHF) =  -78.7896794745     A.U. after    6 cycles
    -- Stationary point found.
                          Input orientation:                          
 ---------------------------------------------------------------------
 Center     Atomic     Atomic              Coordinates (Angstroms)
 Number     Number      Type              X           Y           Z
 ---------------------------------------------------------------------
    1          6             0       15.004919   14.992850   14.222092
    2          6             0       14.995081   14.992849   15.777908
    3          1             0       15.908707   14.545003   13.827862
    4          1             0       14.091292   14.545003   16.172137
    5          1             0       15.849048   14.457669   16.175047
    6          1             0       15.055797   16.004477   16.160940
    7          1             0       14.150951   14.457671   13.824952
    8          1             0       14.944205   16.004478   13.839061
 ---------------------------------------------------------------------
 SCF Done:  E(RHF) =  -78.7895417498     A.U. after    8 cycles
                          Input orientation:                          
 ---------------------------------------------------------------------
 Center     Atomic     Atomic              Coordinates (Angstroms)
 Number     Number      Type              X           Y           Z
 ---------------------------------------------------------------------
    1          6             0       15.002056   14.998602   14.221956
    2          6             0       14.997958   14.998607   15.778032
    3          1             0       15.896693   14.529570   13.831274
    4          1             0       14.103343   14.529596   16.168686
    5          1             0       15.853464   14.463361   16.171678
    6          1             0       15.037786   16.008440   16.168195
    7          1             0       14.146514   14.463375   13.828359
    8          1             0       14.962187   16.008448   13.831819
 ---------------------------------------------------------------------
 SCF Done:  E(RHF) =  -78.7896165181     A.U. after    8 cycles
                          Input orientation:                          
 ---------------------------------------------------------------------
 Center     Atomic     Atomic              Coordinates (Angstroms)
 Number     Number      Type              X           Y           Z
 ---------------------------------------------------------------------
    1          6             0       15.002006   14.998504   14.221968
    2          6             0       14.997993   14.998503   15.778033
    3          1             0       15.896735   14.529751   13.831231
    4          1             0       14.103262   14.529749   16.168770
    5          1             0       15.853437   14.463329   16.171894
    6          1             0       15.037989   16.008417   16.167999
    7          1             0       14.146564   14.463332   13.828105
    8          1             0       14.962013   16.008416   13.832000
 ---------------------------------------------------------------------
 SCF Done:  E(RHF) =  -78.7896165434     A.U. after    6 cycles
    -- Stationary point found.
                          Input orientation:                          
 ---------------------------------------------------------------------
 Center     Atomic     Atomic              Coordinates (Angstroms)
 Number     Number      Type              X           Y           Z
 ---------------------------------------------------------------------
    1          6             0       15.004518   14.993497   14.221978
    2          6             0       14.995482   14.993496   15.778022
    3          1             0       15.899139   14.527386   13.827841
    4          1             0       14.100860   14.527387   16.172158
    5          1             0       15.858843   14.473358   16.174774
    6          1             0       15.035942   16.005758   16.161809
    7          1             0       14.141156   14.473359   13.825226
    8          1             0       14.964059   16.005759   13.838192
 ---------------------------------------------------------------------
 SCF Done:  E(RHF) =  -78.7895034810     A.U. after    8 cycles
                          Input orientation:                          
 ---------------------------------------------------------------------
 Center     Atomic     Atomic              Coordinates (Angstroms)
 Number     Number      Type              X           Y           Z
 ---------------------------------------------------------------------
    1          6             0       15.001744   14.999195   14.221852
    2          6             0       14.998254   14.999175   15.778148
    3          1             0       15.886904   14.512454   13.831276
    4          1             0       14.113044   14.512414   16.168739
    5          1             0       15.863023   14.479045   16.171791
    6          1             0       15.018220   16.009339   16.168753
    7          1             0       14.137021   14.479080   13.828228
    8          1             0       14.981789   16.009298   13.831212
 ---------------------------------------------------------------------
 SCF Done:  E(RHF) =  -78.7895784170     A.U. after    8 cycles
                          Input orientation:                          
 ---------------------------------------------------------------------
 Center     Atomic     Atomic              Coordinates (Angstroms)
 Number     Number      Type              X           Y           Z
 ---------------------------------------------------------------------
    1          6             0       15.001681   14.999237   14.221898
    2          6             0       14.998321   14.999237   15.778100
    3          1             0       15.886873   14.512318   13.831450
    4          1             0       14.113129   14.512322   16.168543
    5          1             0       15.863131   14.479095   16.171603
    6          1             0       15.017990   16.009344   16.168891
    7          1             0       14.136864   14.479095   13.828405
    8          1             0       14.982011   16.009350   13.831111
 ---------------------------------------------------------------------
 SCF Done:  E(RHF) =  -78.7895784513     A.U. after    6 cycles
    -- Stationary point found.
                          Input orientation:                          
 ---------------------------------------------------------------------
 Center     Atomic     Atomic              Coordinates (Angstroms)
 Number     Number      Type              X           Y           Z
 ---------------------------------------------------------------------
    1          6             0       15.004120   14.994176   14.221909
    2          6             0       14.995880   14.994175   15.778091
    3          1             0       15.889214   14.509922   13.827945
    4          1             0       14.110786   14.509923   16.172055
    5          1             0       15.868382   14.489227   16.174426
    6          1             0       15.016024   16.006674   16.162629
    7          1             0       14.131618   14.489230   13.825574
    8          1             0       14.983977   16.006674   13.837371
 ---------------------------------------------------------------------
 SCF Done:  E(RHF) =  -78.7894905546     A.U. after    8 cycles
                          Input orientation:                          
 ---------------------------------------------------------------------
 Center     Atomic     Atomic              Coordinates (Angstroms)
 Number     Number      Type              X           Y           Z
 ---------------------------------------------------------------------
    1          6             0       15.001372   15.000016   14.221932
    2          6             0       14.998580   15.000016   15.778117
    3          1             0       15.876628   14.495060   13.831931
    4          1             0       14.123352   14.495016   16.168209
    5          1             0       15.872494   14.495064   16.171173
    6          1             0       14.998133   16.009908   16.169834
    7          1             0       14.127546   14.495096   13.828649
    8          1             0       15.001895   16.009824   13.830156
 ---------------------------------------------------------------------
 SCF Done:  E(RHF) =  -78.7895656699     A.U. after    8 cycles
                          Input orientation:                          
 ---------------------------------------------------------------------
 Center     Atomic     Atomic              Coordinates (Angstroms)
 Number     Number      Type              X           Y           Z
 ---------------------------------------------------------------------
    1          6             0       15.001356   14.999997   14.221878
    2          6             0       14.998643   15.000004   15.778124
    3          1             0       15.876644   14.495045   13.831807
    4          1             0       14.123353   14.495054   16.168191
    5          1             0       15.872563   14.495049   16.171247
    6          1             0       14.997966   16.009902   16.169738
    7          1             0       14.127438   14.495046   13.828742
    8          1             0       15.002036   16.009904   13.830273
 ---------------------------------------------------------------------
 SCF Done:  E(RHF) =  -78.7895656963     A.U. after    6 cycles
    -- Stationary point found.
                          Input orientation:                          
 ---------------------------------------------------------------------
 Center     Atomic     Atomic              Coordinates (Angstroms)
 Number     Number      Type              X           Y           Z
 ---------------------------------------------------------------------
    1          6             0       15.001356   14.999997   14.221878
    2          6             0       14.998643   15.000004   15.778124
    3          1             0       15.876644   14.495045   13.831807
    4          1             0       14.123353   14.495054   16.168191
    5          1             0       15.872563   14.495049   16.171247
    6          1             0       14.997966   16.009902   16.169738
    7          1             0       14.127438   14.495046   13.828742
    8          1             0       15.002036   16.009904   13.830273
 ---------------------------------------------------------------------
