Who cares about the title?                                              
Scan      RHF                                                         3-21G               
Number of atoms                            I                8
Charge                                     I                0
Multiplicity                               I                1
Number of electrons                        I               18
Number of alpha electrons                  I                9
Number of beta electrons                   I                9
Number of basis functions                  I               30
Number of independant functions            I               30
Number of point charges in /Mol/           I                0
Number of translation vectors              I                0
Info1-9                                    I   N=           9
          20          19           0           0           0         110
           8           1           1
Num ILSW                                   I              100
ILSW                                       I   N=         100
           0           1           0           0           2           0
           0           0           0           0           0     1000000
           5           0           0           0           0           0
           0     1000000           1           0           1           0
           1           1           0           0     1000000           0
           0           0      100000           0          -1           0
           0           0           0           0           0           0
           0           0           0           1           0           0
           0           0           1     1000000     1000000           0
           0           0           0           0           0           0
           0           0           0           0           0           0
           0           0           0           0           0           0
           0           0           0           0           0           0
           0           0           0           0           0           0
           0           0           0           0           0           0
           0           0           0           0           0           0
           0           0           0           0
Number of contracted shells                I               18
Highest angular momentum                   I                1
Largest degree of contraction              I                3
Number of primitive shells                 I               30
Pure/Cartesian d shells                    I                1
Pure/Cartesian f shells                    I                0
Virial Ratio                               R      2.001939004889624E+00
SCF Energy                                 R     -7.878956569628156E+01
Total Energy                               R     -7.878956569628156E+01
RMS Force                                  R      1.431618127465969E-06
RMS Density                                R      1.593617815758325E-09
Atomic numbers                             I   N=           8
           6           6           1           1           1           1
           1           1
Nuclear charges                            R   N=           8
  6.00000000E+00  6.00000000E+00  1.00000000E+00  1.00000000E+00  1.00000000E+00
  1.00000000E+00  1.00000000E+00  1.00000000E+00
Current cartesian coordinates              R   N=          24
  2.83484550E+01  2.83458859E+01  2.68754552E+01  2.83433284E+01  2.83458987E+01
  2.98163325E+01  3.00025091E+01  2.73916650E+01  2.61383270E+01  2.66892683E+01
  2.73916816E+01  3.05534532E+01  2.99947970E+01  2.73916733E+01  3.05592285E+01
  2.83420487E+01  3.02543306E+01  3.05563762E+01  2.66969897E+01  2.73916669E+01
  2.61325350E+01  2.83497398E+01  3.02543340E+01  2.61354286E+01
Int Atom Types                             I   N=           8
           0           0           0           0           0           0
           0           0
Force Field                                I                0
MM charges                                 R   N=           8
  0.00000000E+00  0.00000000E+00  0.00000000E+00  0.00000000E+00  0.00000000E+00
  0.00000000E+00  0.00000000E+00  0.00000000E+00
Integer atomic weights                     I   N=           8
          12          12           1           1           1           1
           1           1
Real atomic weights                        R   N=           8
  1.20000000E+01  1.20000000E+01  1.00782504E+00  1.00782504E+00  1.00782504E+00
  1.00782504E+00  1.00782504E+00  1.00782504E+00
Atom residue info                          I   N=           8
           0           0           0           0           0           0
           0           0
Atom fragment info                         I   N=           8
           0           0           0           0           0           0
           0           0
Atom residue num                           I   N=           8
           0           0           0           0           0           0
           0           0
Nuclear spins                              I   N=           8
           0           0           1           1           1           1
           1           1
Nuclear ZEff                               R   N=           8
 -3.60000000E+00 -3.60000000E+00 -1.00000000E+00 -1.00000000E+00 -1.00000000E+00
 -1.00000000E+00 -1.00000000E+00 -1.00000000E+00
Nuclear QMom                               R   N=           8
  0.00000000E+00  0.00000000E+00  0.00000000E+00  0.00000000E+00  0.00000000E+00
  0.00000000E+00  0.00000000E+00  0.00000000E+00
Nuclear GFac                               R   N=           8
  0.00000000E+00  0.00000000E+00  2.79284600E+00  2.79284600E+00  2.79284600E+00
  2.79284600E+00  2.79284600E+00  2.79284600E+00
MicOpt                                     I   N=           8
          -1          -1          -1          -1          -1          -1
          -1          -1
Constraint Structure                       R   N=          24
  2.83458922E+01  2.83458920E+01  2.69004468E+01  2.83458918E+01  2.83458920E+01
  2.97913372E+01  3.03143664E+01  2.83458920E+01  2.61708225E+01  2.63774177E+01
  2.83458920E+01  3.05209615E+01  2.93301286E+01  2.66411435E+01  3.05209622E+01
  2.93301286E+01  3.00506406E+01  3.05209622E+01  2.73616554E+01  2.66411435E+01
  2.61708219E+01  2.73616554E+01  3.00506406E+01  2.61708219E+01
ONIOM Charges                              I   N=          16
           0           0           0           0           0           0
           0           0           0           0           0           0
           0           0           0           0
ONIOM Multiplicities                       I   N=          16
           1           0           0           0           0           0
           0           0           0           0           0           0
           0           0           0           0
Atom Layers                                I   N=           8
           1           1           1           1           1           1
           1           1
Atom Modifiers                             I   N=           8
           0           0           0           0           0           0
           0           0
Int Atom Modified Types                    I   N=           8
           0           0           0           0           0           0
           0           0
Link Atoms                                 I   N=           8
           0           0           0           0           0           0
           0           0
Atom Modified MM Charges                   R   N=           8
  0.00000000E+00  0.00000000E+00  0.00000000E+00  0.00000000E+00  0.00000000E+00
  0.00000000E+00  0.00000000E+00  0.00000000E+00
Link Distances                             R   N=          32
  0.00000000E+00  0.00000000E+00  0.00000000E+00  0.00000000E+00  0.00000000E+00
  0.00000000E+00  0.00000000E+00  0.00000000E+00  0.00000000E+00  0.00000000E+00
  0.00000000E+00  0.00000000E+00  0.00000000E+00  0.00000000E+00  0.00000000E+00
  0.00000000E+00  0.00000000E+00  0.00000000E+00  0.00000000E+00  0.00000000E+00
  0.00000000E+00  0.00000000E+00  0.00000000E+00  0.00000000E+00  0.00000000E+00
  0.00000000E+00  0.00000000E+00  0.00000000E+00  0.00000000E+00  0.00000000E+00
  0.00000000E+00  0.00000000E+00
MxBond                                     I                4
NBond                                      I   N=           8
           4           4           1           1           1           1
           1           1
IBond                                      I   N=          32
           2           3           7           8           1           4
           5           6           1           0           0           0
           2           0           0           0           2           0
           0           0           2           0           0           0
           1           0           0           0           1           0
           0           0
RBond                                      R   N=          32
  1.00000000E+00  1.00000000E+00  1.00000000E+00  1.00000000E+00  1.00000000E+00
  1.00000000E+00  1.00000000E+00  1.00000000E+00  1.00000000E+00  0.00000000E+00
  0.00000000E+00  0.00000000E+00  1.00000000E+00  0.00000000E+00  0.00000000E+00
  0.00000000E+00  1.00000000E+00  0.00000000E+00  0.00000000E+00  0.00000000E+00
  1.00000000E+00  0.00000000E+00  0.00000000E+00  0.00000000E+00  1.00000000E+00
  0.00000000E+00  0.00000000E+00  0.00000000E+00  1.00000000E+00  0.00000000E+00
  0.00000000E+00  0.00000000E+00
Shell types                                I   N=          18
           0          -1          -1           0          -1          -1
           0           0           0           0           0           0
           0           0           0           0           0           0
Number of primitives per shell             I   N=          18
           3           2           1           3           2           1
           2           1           2           1           2           1
           2           1           2           1           2           1
Shell to atom map                          I   N=          18
           1           1           1           2           2           2
           3           3           4           4           5           5
           6           6           7           7           8           8
Primitive exponents                        R   N=          30
  1.72256000E+02  2.59109000E+01  5.53335000E+00  3.66498000E+00  7.70545000E-01
  1.95857000E-01  1.72256000E+02  2.59109000E+01  5.53335000E+00  3.66498000E+00
  7.70545000E-01  1.95857000E-01  5.44717800E+00  8.24547240E-01  1.83191580E-01
  5.44717800E+00  8.24547240E-01  1.83191580E-01  5.44717800E+00  8.24547240E-01
  1.83191580E-01  5.44717800E+00  8.24547240E-01  1.83191580E-01  5.44717800E+00
  8.24547240E-01  1.83191580E-01  5.44717800E+00  8.24547240E-01  1.83191580E-01
Contraction coefficients                   R   N=          30
  6.17669074E-02  3.58794043E-01  7.00713084E-01 -3.95895162E-01  1.21583436E+00
  1.00000000E+00  6.17669074E-02  3.58794043E-01  7.00713084E-01 -3.95895162E-01
  1.21583436E+00  1.00000000E+00  1.56284979E-01  9.04690877E-01  1.00000000E+00
  1.56284979E-01  9.04690877E-01  1.00000000E+00  1.56284979E-01  9.04690877E-01
  1.00000000E+00  1.56284979E-01  9.04690877E-01  1.00000000E+00  1.56284979E-01
  9.04690877E-01  1.00000000E+00  1.56284979E-01  9.04690877E-01  1.00000000E+00
P(S=P) Contraction coefficients            R   N=          30
  0.00000000E+00  0.00000000E+00  0.00000000E+00  2.36459947E-01  8.60618806E-01
  1.00000000E+00  0.00000000E+00  0.00000000E+00  0.00000000E+00  2.36459947E-01
  8.60618806E-01  1.00000000E+00  0.00000000E+00  0.00000000E+00  0.00000000E+00
  0.00000000E+00  0.00000000E+00  0.00000000E+00  0.00000000E+00  0.00000000E+00
  0.00000000E+00  0.00000000E+00  0.00000000E+00  0.00000000E+00  0.00000000E+00
  0.00000000E+00  0.00000000E+00  0.00000000E+00  0.00000000E+00  0.00000000E+00
Coordinates of each shell                  R   N=          54
  2.83484550E+01  2.83458859E+01  2.68754552E+01  2.83484550E+01  2.83458859E+01
  2.68754552E+01  2.83484550E+01  2.83458859E+01  2.68754552E+01  2.83433284E+01
  2.83458987E+01  2.98163325E+01  2.83433284E+01  2.83458987E+01  2.98163325E+01
  2.83433284E+01  2.83458987E+01  2.98163325E+01  3.00025091E+01  2.73916650E+01
  2.61383270E+01  3.00025091E+01  2.73916650E+01  2.61383270E+01  2.66892683E+01
  2.73916816E+01  3.05534532E+01  2.66892683E+01  2.73916816E+01  3.05534532E+01
  2.99947970E+01  2.73916733E+01  3.05592285E+01  2.99947970E+01  2.73916733E+01
  3.05592285E+01  2.83420487E+01  3.02543306E+01  3.05563762E+01  2.83420487E+01
  3.02543306E+01  3.05563762E+01  2.66969897E+01  2.73916669E+01  2.61325350E+01
  2.66969897E+01  2.73916669E+01  2.61325350E+01  2.83497398E+01  3.02543340E+01
  2.61354286E+01  2.83497398E+01  3.02543340E+01  2.61354286E+01
Alpha Orbital Energies                     R   N=          30
 -1.11515374E+01 -1.11512570E+01 -1.01430733E+00 -8.48388670E-01 -5.97150377E-01
 -5.97148570E-01 -5.01201114E-01 -4.85815558E-01 -4.85814306E-01  2.79424854E-01
  3.05521609E-01  3.05522122E-01  3.42133892E-01  4.24058203E-01  4.24980595E-01
  4.24981145E-01  9.03560391E-01  9.03562327E-01  9.84502408E-01  1.06929186E+00
  1.12382795E+00  1.12382927E+00  1.30123016E+00  1.34754296E+00  1.34754371E+00
  1.36720190E+00  1.36720459E+00  1.44743711E+00  1.91873421E+00  2.31972407E+00
Alpha MO coefficients                      R   N=         900
  6.99292374E-01  7.35039646E-02  5.08407787E-07  1.72996301E-08 -2.87654917E-04
 -7.02064374E-02  1.70797412E-05 -1.26105319E-07 -9.83069171E-03 -6.97780006E-01
 -7.33522784E-02  5.04804556E-07  1.03625143E-08 -2.87791018E-04  7.01130211E-02
  1.71442740E-05 -1.19277344E-07 -9.84197668E-03  9.01542872E-04  1.02040567E-02
 -9.03352133E-04 -1.01811710E-02 -9.03327042E-04 -1.01812048E-02 -9.03289398E-04
 -1.01811676E-02  9.01526028E-04  1.02039981E-02  9.01597437E-04  1.02039655E-02
  6.97204627E-01  6.99374476E-02 -1.20830421E-07 -3.20789713E-09  7.04361418E-05
 -4.30798361E-02 -9.08948452E-06  1.34795111E-08  5.20363495E-03  6.98718239E-01
  7.00965811E-02  1.29295675E-07 -3.93500534E-09 -6.98115934E-05 -4.32320076E-02
  9.00819923E-06  3.19424952E-08 -5.18230199E-03 -8.21789047E-04  1.05383412E-02
 -8.19839149E-04  1.05604646E-02 -8.19824370E-04  1.05604437E-02 -8.19851794E-04
  1.05604343E-02 -8.21771310E-04  1.05382720E-02 -8.21773867E-04  1.05383186E-02
 -1.55712975E-01  1.51913279E-01 -7.47164247E-05  2.50571380E-08  4.30507606E-02
  4.08460931E-01 -5.59223450E-06 -5.67547566E-08  3.29376413E-03 -1.55713678E-01
  1.51913923E-01  7.51310058E-05 -4.70456628E-07 -4.30503266E-02  4.08463379E-01
  5.97516503E-06 -4.31472329E-07 -3.29390155E-03  8.02126295E-02  4.14362438E-03
  8.02129849E-02  4.14354166E-03  8.02129832E-02  4.14355179E-03  8.02127148E-02
  4.14358549E-03  8.02120364E-02  4.14370252E-03  8.02119393E-02  4.14353721E-03
 -1.39032887E-01  1.25466493E-01  1.84085092E-04 -7.49753515E-07 -1.05530495E-01
  4.85135877E-01  5.72622404E-05  2.81841052E-07 -3.27266083E-02  1.39032216E-01
 -1.25465898E-01  1.83733988E-04 -8.08942640E-07 -1.05530778E-01 -4.85133705E-01
  5.70403681E-05 -1.02565943E-07 -3.27265106E-02  1.05841347E-01  3.37452997E-02
 -1.05840177E-01 -3.37447720E-02 -1.05840752E-01 -3.37450476E-02 -1.05842153E-01
 -3.37457403E-02  1.05841770E-01  3.37458050E-02  1.05840575E-01  3.37451085E-02
 -2.00963217E-08  7.66362940E-08  2.63004370E-01 -4.15455962E-02  4.60631581E-04
 -1.99720038E-07  2.01467884E-01 -3.18249966E-02  3.52964019E-04  2.43012485E-07
 -2.62082472E-07  2.63006908E-01 -4.15430023E-02  4.57454371E-04 -1.14731505E-06
  2.01469584E-01 -3.18228136E-02  3.50460364E-04  1.58738661E-01  1.38110392E-01
 -1.32207848E-01 -1.15027079E-01  1.58738786E-01  1.38110572E-01 -2.65323048E-02
 -2.30845864E-02 -1.32204152E-01 -1.15024339E-01 -2.65349775E-02 -2.30865578E-02
 -3.68621692E-07  2.23467531E-07  4.15425003E-02  2.63005040E-01  6.87059531E-05
  2.61851687E-06  3.18227048E-02  2.01468688E-01  5.28311212E-05  2.47427452E-07
 -1.01264501E-07  4.15459039E-02  2.63007275E-01  7.59184515E-05 -1.26182222E-06
  3.18252551E-02  2.01470420E-01  5.83318424E-05 -6.10090938E-02 -5.30812072E-02
 -1.06967923E-01 -9.30676317E-02 -6.10094116E-02 -5.30815634E-02  1.67977960E-01
  1.46149364E-01 -1.06964549E-01 -9.30651939E-02  1.67977203E-01  1.46149418E-01
 -1.95523156E-02  1.71910105E-02 -5.83988945E-04  4.18630605E-05  3.47087119E-01
  5.93952996E-02 -4.73463124E-04  3.96198952E-05  2.83357084E-01 -1.95521013E-02
  1.71906399E-02  5.81967070E-04 -3.50822373E-05 -3.47087042E-01  5.93950538E-02
  4.71833321E-04 -3.38240946E-05 -2.83356904E-01 -7.49376662E-02 -8.27551351E-02
 -7.49080817E-02 -8.27275227E-02 -7.49385137E-02 -8.27559508E-02 -7.49648602E-02
 -8.27795929E-02 -7.49670155E-02 -8.27821720E-02 -7.49068666E-02 -8.27259018E-02
  1.26099295E-06 -1.09727169E-06  2.63444165E-01 -3.77040876E-02  4.37518036E-04
 -3.83163259E-06  2.52798821E-01 -3.61806462E-02  4.22910931E-04  1.48597177E-06
 -1.30448062E-06 -2.63441819E-01  3.77067981E-02 -4.36651210E-04 -5.27197141E-06
 -2.52797033E-01  3.61828896E-02 -4.21630436E-04  1.84468016E-01  1.81243701E-01
  1.56307938E-01  1.53575560E-01 -1.84457278E-01 -1.81231343E-01  2.81636771E-02
  2.76722799E-02 -1.56300093E-01 -1.53567132E-01 -2.81531097E-02 -2.76600224E-02
  3.70667208E-06 -3.40556654E-06  3.77069118E-02  2.63443773E-01  1.09908404E-05
 -1.25820055E-05  3.61831325E-02  2.52799341E-01  1.68280477E-05  3.03085718E-06
 -2.83355715E-06 -3.77037963E-02 -2.63442475E-01 -1.23874408E-05 -8.80638726E-06
 -3.61807054E-02 -2.52797609E-01 -1.88312807E-05 -7.39721645E-02 -7.26769132E-02
  1.22767050E-01  1.20622650E-01  7.39981189E-02  7.27069213E-02 -1.96729596E-01
 -1.93288480E-01 -1.22746783E-01 -1.20599760E-01  1.96753279E-01  1.93316630E-01
 -1.08763866E-01  2.70620647E-02  1.50153399E-04 -2.95156572E-06 -8.52945667E-02
  1.56076341E+00  8.86339232E-04 -1.36539163E-05 -5.04606419E-01 -1.08762833E-01
  2.70615235E-02 -1.48410878E-04 -5.77499182E-06  8.52944230E-02  1.56075628E+00
 -8.77684212E-04 -2.52980714E-05  5.04604731E-01  6.10467234E-04 -7.56706192E-01
  6.10416048E-04 -7.56698226E-01  6.10548067E-04 -7.56703328E-01  6.14019575E-04
 -7.56660147E-01  6.11572028E-04 -7.56695017E-01  6.12670057E-04 -7.56671281E-01
 -7.12275435E-07  6.14700781E-07 -3.79686012E-02 -1.80577883E-01 -5.96541964E-05
 -2.17507400E-07 -1.70580542E-01 -8.11298940E-01 -2.72431850E-04  5.30190891E-06
 -1.67717751E-06 -3.79678730E-02 -1.80575692E-01 -6.56153146E-05 -7.11186258E-05
 -1.70586665E-01 -8.11291448E-01 -3.03717802E-04 -2.09815348E-02 -3.43556511E-01
 -4.50178383E-02 -7.37105235E-01 -2.09827284E-02 -3.43537190E-01  6.59984281E-02
  1.08071876E+00 -4.50174013E-02 -7.37124256E-01  6.59998222E-02  1.08070792E+00
 -2.57363208E-06  7.76495195E-07 -1.80577689E-01  3.79672635E-02 -3.15595440E-04
  3.31193654E-05 -8.11299470E-01  1.70580896E-01 -1.41924331E-03  6.70568177E-07
 -2.68699807E-07 -1.80576105E-01  3.79692302E-02 -3.12516623E-04 -4.75874126E-06
 -8.11297555E-01  1.70587767E-01 -1.40456073E-03  6.40945680E-02  1.04951322E+00
 -5.02178231E-02 -8.22300922E-01  6.40943026E-02  1.04952555E+00 -1.38769735E-02
 -2.27229143E-01 -5.02172424E-02 -8.22311195E-01 -1.38765258E-02 -2.27239113E-01
  1.46684904E-01 -2.07878135E-02 -1.84593476E-05 -5.04662531E-06  9.70758324E-03
 -2.11009339E+00  3.31182098E-04 -2.61227500E-05 -1.94797780E-01 -1.46685642E-01
  2.07879410E-02 -2.02858462E-05 -1.13043860E-06  9.70739963E-03  2.11010885E+00
  3.23207698E-04 -5.73488040E-06 -1.94795724E-01 -8.80674073E-03  7.62925971E-01
  8.80636376E-03 -7.62955214E-01  8.80760741E-03 -7.62921858E-01  8.80793153E-03
 -7.62927683E-01 -8.80772712E-03  7.62904916E-01 -8.80627053E-03  7.62952811E-01
 -4.75660354E-02  4.17824365E-03 -4.87355830E-04  1.44001277E-04  2.62670882E-01
  6.34116671E-01 -3.03966862E-03  7.91246444E-04  1.65116265E+00  4.75658679E-02
 -4.17812736E-03 -4.26602271E-04 -1.39522118E-04  2.62670674E-01 -6.34113442E-01
 -2.70706873E-03 -7.60681069E-04  1.65116339E+00  4.03575916E-02  4.18686812E-01
 -4.03546704E-02 -4.18359750E-01 -4.03576923E-02 -4.18687274E-01 -4.03360954E-02
 -4.17301670E-01  4.03512932E-02  4.18397786E-01  4.03383712E-02  4.17262566E-01
  2.79703949E-05 -2.05286991E-06  5.89085890E-02  2.26467464E-01 -3.97354664E-05
 -3.88145324E-04  3.23416258E-01  1.24332561E+00 -3.49755390E-04 -2.67812820E-05
  2.51387702E-06 -5.89112053E-02 -2.26468041E-01 -2.50583902E-04  3.52292883E-04
 -3.23427049E-01 -1.24333331E+00 -1.49440337E-03  4.76814694E-03  3.68703253E-01
 -1.26270667E-02 -9.73724399E-01 -4.77024800E-03 -3.68689263E-01  1.74620681E-02
  1.34311410E+00  1.26266920E-02  9.73725290E-01 -1.74633269E-02 -1.34308091E+00
 -1.39981468E-05  1.16456515E-06  2.26466752E-01 -5.89096862E-02  4.68876186E-04
  1.91081639E-04  1.24333016E+00 -3.23422041E-01  2.63634528E-03  1.40597743E-05
 -9.23045148E-07 -2.26467280E-01  5.89100923E-02 -3.23279278E-04 -1.94004603E-04
 -1.24333552E+00  3.23422161E-01 -1.70768188E-03 -1.73610524E-02 -1.33751016E+00
 -1.28462048E-02 -9.88420020E-01  1.73606938E-02  1.33751361E+00 -4.54883287E-03
 -3.49423130E-01  1.28470869E-02  9.88419085E-01  4.54702962E-03  3.49426698E-01
  3.04329329E-07 -1.88697152E-07 -3.57594463E-02 -4.81258040E-01 -7.46606383E-05
  7.38424319E-06  4.79843149E-02  6.45830750E-01  1.16752549E-04 -3.03314182E-07
 -1.84737549E-07 -3.57571936E-02 -4.81261827E-01 -6.06924445E-05 -1.20706388E-05
  4.79881133E-02  6.45846565E-01  1.04572762E-04  2.04116393E-01 -4.94236839E-02
  2.64408603E-01 -6.40330664E-02  2.04118304E-01 -4.94399476E-02 -4.68532475E-01
  1.13463398E-01  2.64417515E-01 -6.40368590E-02 -4.68519471E-01  1.13469072E-01
 -1.22875140E-07 -3.87544762E-07 -4.81259757E-01  3.57563308E-02 -8.37341221E-04
  9.80488241E-06  6.45840683E-01 -4.79886766E-02  1.13580375E-03  8.11488662E-09
  4.31774428E-07 -4.81259826E-01  3.57604181E-02 -8.45018428E-04 -4.41457604E-06
  6.45850417E-01 -4.79870713E-02  1.14387061E-03 -4.23162463E-01  1.02475298E-01
  3.88347832E-01 -9.40363491E-02 -4.23163871E-01  1.02467098E-01  3.48100538E-02
 -8.43607246E-03  3.88352057E-01 -9.40491876E-02  3.48115682E-02 -8.42356032E-03
 -7.17674904E-03 -4.51010704E-02 -1.22964032E-03 -1.90832680E-05  6.99301628E-01
  5.59346391E-01  1.58724817E-03  3.63329676E-05 -8.98857435E-01 -7.17750162E-03
 -4.51014189E-02  1.23409886E-03  1.02411985E-05 -6.99306649E-01  5.59351889E-01
 -1.59540204E-03 -1.60176307E-05  8.98859472E-01 -1.75917834E-01 -6.50798089E-02
 -1.75933141E-01 -6.50778516E-02 -1.75915649E-01 -6.50783696E-02 -1.75919891E-01
 -6.50903400E-02 -1.75909112E-01 -6.50845433E-02 -1.75934997E-01 -6.50830991E-02
  5.93189677E-02 -1.62109196E-01  1.28135078E-03 -3.80791553E-06 -7.30742055E-01
  2.98086253E-01 -2.20445749E-03  1.62757799E-05  1.25846205E+00 -5.93188036E-02
  1.62109213E-01  1.27607146E-03  1.72538231E-05 -7.30737217E-01 -2.98088577E-01
 -2.19314616E-03 -2.79531102E-05  1.25845454E+00  1.83983130E-01  1.64659002E-01
 -1.83982782E-01 -1.64656052E-01 -1.83982823E-01 -1.64658400E-01 -1.83972587E-01
 -1.64649491E-01  1.83982075E-01  1.64654144E-01  1.83981153E-01  1.64648784E-01
 -1.99815866E-07 -3.36856407E-06 -5.34413878E-01  3.10833876E-01 -9.46174370E-04
  1.38527409E-05  1.46565564E+00 -8.52466428E-01  2.59193625E-03 -3.55072125E-07
  1.70609157E-06  5.34413907E-01 -3.10822879E-01  9.30065871E-04 -1.37615053E-05
 -1.46565451E+00  8.52452195E-01 -2.53427047E-03 -4.13119931E-01 -4.30087506E-01
 -2.05416957E-01 -2.13860849E-01  4.13114335E-01  4.30086442E-01 -2.07704430E-01
 -2.16235483E-01  2.05412169E-01  2.13861684E-01  2.07705137E-01  2.16242014E-01
 -2.53850294E-07  4.34347167E-06 -3.10827590E-01 -5.34416746E-01 -5.58522494E-04
 -4.27731434E-05  8.52457012E-01  1.46565072E+00  1.49508292E-03  2.88699290E-07
 -7.93048081E-07  3.10830690E-01  5.34411169E-01  5.75969724E-04 -2.14460839E-05
 -8.52467513E-01 -1.46564855E+00 -1.55206943E-03 -1.31928938E-03 -1.37634771E-03
 -3.58429325E-01 -3.73143018E-01  1.32461419E-03  1.39240029E-03  3.57111300E-01
  3.71795715E-01  3.58431457E-01  3.73159515E-01 -3.57111183E-01 -3.71768954E-01
  6.72953833E-02  1.78913235E-02 -5.96102917E-04 -4.75548892E-06  3.36981390E-01
 -1.60250928E-01  1.14926303E-04  1.20631936E-05 -5.57010039E-02  6.72948565E-02
  1.78954803E-02  5.99418038E-04  1.98473936E-05 -3.36973789E-01 -1.60261494E-01
 -1.20829066E-04 -2.62389019E-05  5.56900434E-02  5.16027363E-01 -2.09106394E-01
  5.16032833E-01 -2.09121436E-01  5.16028919E-01 -2.09096334E-01  5.16006543E-01
 -2.09065629E-01  5.16028541E-01 -2.09092852E-01  5.16032013E-01 -2.09113681E-01
 -1.98926863E-06  4.80077129E-06  1.73295527E-01  6.30982309E-01  2.97333895E-04
 -4.56994104E-06 -1.87537445E-01 -6.82809888E-01 -3.18055964E-04  3.28728122E-07
 -6.69468307E-06  1.73251276E-01  6.30914594E-01  3.07862092E-04  9.13471379E-06
 -1.87474080E-01 -6.82736479E-01 -3.24346593E-04  1.46769064E-01 -2.29705822E-01
  4.13038521E-01 -6.46445976E-01  1.46777407E-01 -2.29732100E-01 -5.59819816E-01
  8.76163705E-01  4.13118560E-01 -6.46568108E-01 -5.59920303E-01  8.76303667E-01
  2.99976443E-08 -9.33512230E-08  6.30965819E-01 -1.73258925E-01  1.10461550E-03
 -1.31810669E-07 -6.82794136E-01  1.87488315E-01 -1.19669601E-03  6.00984778E-08
  3.13626449E-07  6.30929294E-01 -1.73288669E-01  1.10279154E-03  3.34719044E-07
 -6.82749396E-01  1.87523597E-01 -1.19294705E-03 -5.61742946E-01  8.79168257E-01
  4.07952511E-01 -6.38478897E-01 -5.61722385E-01  8.79137387E-01  1.53767235E-01
 -2.40656020E-01  4.08010120E-01 -6.38562142E-01  1.53736023E-01 -2.40610035E-01
 -1.64435539E-06 -1.71575212E-06 -1.04271846E-01 -5.31918899E-01 -1.85659159E-04
  5.34573078E-06  1.21067430E-01  6.17595592E-01  2.13291531E-04 -1.51554048E-06
 -3.72567737E-07  1.04338986E-01  5.32002511E-01  1.93602318E-04  4.36599931E-06
 -1.21140880E-01 -6.17684721E-01 -2.15416985E-04 -2.19048551E-01  3.18118504E-01
  4.44349331E-01 -6.45351493E-01  2.19014985E-01 -3.18093244E-01 -6.63395746E-01
  9.63452350E-01 -4.44283749E-01  6.45224450E-01  6.63304946E-01 -9.63331179E-01
 -7.14377964E-07  3.19279284E-06 -5.31937176E-01  1.04316253E-01 -9.34174332E-04
 -1.23338610E-06  6.17609501E-01 -1.21116404E-01  1.08457935E-03  1.40733653E-08
 -9.63220656E-07  5.31980777E-01 -1.04296986E-01  9.24650937E-04  5.32796252E-07
 -6.17656362E-01  1.21096897E-01 -1.07290528E-03  6.39496226E-01 -9.28747929E-01
  5.09470303E-01 -7.39906601E-01 -6.39524076E-01  9.28787644E-01  1.30057113E-01
 -1.88886382E-01 -5.09426409E-01  7.39840367E-01 -1.30084652E-01  1.88918898E-01
 -8.06084815E-02  3.46360495E-01  6.93791410E-04 -1.24317560E-05 -3.95354866E-01
 -1.50783687E-01 -1.45625415E-03  1.88933124E-05  8.32872524E-01  8.06095623E-02
 -3.46357060E-01  6.85000970E-04 -3.82954958E-06 -3.95361518E-01  1.50776099E-01
 -1.44643548E-03  3.98357630E-06  8.32873135E-01 -4.83760850E-01  5.42159598E-01
  4.83756395E-01 -5.42138659E-01  4.83762783E-01 -5.42151152E-01  4.83764471E-01
 -5.42152500E-01 -4.83752154E-01  5.42149124E-01 -4.83746513E-01  5.42129317E-01
  1.08084620E-02 -1.38205372E+00  9.26572476E-05  8.73740578E-09 -5.32079406E-02
  2.17759747E+00  5.23068744E-04 -1.00349956E-06 -2.99946222E-01  1.08086281E-02
 -1.38205297E+00 -9.32927217E-05  1.87263290E-07  5.32072457E-02  2.17760107E+00
 -5.20279927E-04 -1.13507959E-06  2.99947316E-01 -2.08172568E-02 -5.69013434E-01
 -2.08155546E-02 -5.69015595E-01 -2.08182622E-02 -5.69013669E-01 -2.08152750E-02
 -5.69015001E-01 -2.08199883E-02 -5.69008697E-01 -2.08184793E-02 -5.69011953E-01
  7.91515643E-02  1.54686703E+00  3.48590365E-05  2.53772256E-06 -2.01679697E-02
 -4.04523959E+00  1.38151989E-03 -1.19287742E-05 -7.94641413E-01 -7.91517831E-02
 -1.54686977E+00  3.56756766E-05  3.56717128E-08 -2.01653442E-02  4.04524847E+00
  1.38403722E-03 -7.51908048E-06 -7.94644018E-01  2.98739191E-01  4.60829563E-01
 -2.98743310E-01 -4.60828415E-01 -2.98740392E-01 -4.60831146E-01 -2.98736224E-01
 -4.60830441E-01  2.98735760E-01  4.60827262E-01  2.98744227E-01  4.60825284E-01
Total SCF Density                          R   N=         465
  2.03812617E+00  1.17453025E-01  9.88181908E-02 -3.63715424E-06  2.69521786E-06
  2.83444195E-01  2.49040963E-07 -3.39522728E-07 -1.63556846E-07  2.83443818E-01
  2.06048912E-03 -1.49999741E-03  2.86799099E-05 -1.15254394E-07  2.66920036E-01
 -4.22688223E-01  2.31533313E-01  4.52865167E-05 -6.82613924E-07 -2.59591462E-02
  8.25019538E-01  1.64207373E-05 -3.12536076E-06  2.44543889E-01  1.61158581E-07
  7.07368763E-05 -9.62811588E-06  2.13637367E-01 -1.32000747E-07 -1.58245787E-07
  1.58186980E-07  2.44544082E-01 -2.98603919E-07 -6.62582845E-08  3.84971669E-07
  2.13638020E-01 -9.49924589E-03  1.81360403E-03  7.06403135E-05 -7.89696989E-07
  2.03897188E-01  5.52921081E-03  8.80913333E-05 -8.35712466E-07  1.62994288E-01
  8.99246178E-03 -1.79404758E-02  9.75742047E-05 -2.87106748E-07 -5.58241555E-02
  4.31464812E-02  7.25085818E-07  2.50665429E-07 -2.15255781E-04  2.03812621E+00
 -1.79404560E-02  1.42843863E-02 -9.01108220E-05  2.05981113E-07  5.15463494E-02
  8.66797994E-03 -3.71028646E-05 -6.77644571E-08  2.11267830E-02  1.17453045E-01
  9.88182742E-02 -9.73442912E-05  8.99270326E-05  1.47342700E-04  6.12844937E-08
  3.88333681E-04  3.11778381E-04 -2.73054798E-02  5.66140311E-08  2.84229323E-04
  3.54777914E-06 -2.57025819E-06  2.83444485E-01 -2.97788907E-07  2.71619453E-07
  8.56631932E-08  1.48372325E-04  8.49230813E-07  2.39650757E-06  1.97579271E-07
 -2.73050105E-02  1.65836059E-06 -1.01413683E-07  2.14899329E-07 -1.65642615E-08
  2.83444779E-01  5.58243497E-02 -5.15466109E-02  3.88901633E-04 -5.80450215E-07
 -2.22371946E-01 -1.78746535E-01  2.84543241E-04 -7.50646813E-07 -1.90070518E-01
 -2.06067317E-03  1.50027705E-03  2.86992310E-05  8.78899686E-08  2.66919967E-01