Who cares about the title?                                              
Freq      RMP2-FC                                                     CC-pVDZ             
Number of atoms                            I                3
Charge                                     I                0
Multiplicity                               I                1
Number of electrons                        I               22
Number of alpha electrons                  I               11
Number of beta electrons                   I               11
Number of basis functions                  I               42
Number of independant functions            I               42
Number of point charges in /Mol/           I                0
Number of translation vectors              I                0
Info1-9                                    I   N=           9
          12          12        1002           0           0         100
           6           2           1
Num ILSW                                   I              100
ILSW                                       I   N=         100
           0           0           0           0           2           0
           0           0           0           0           0     1000000
           0           0           0           0           0           0
           0     1000000           1           0           1           0
           1           1           0           0     1000000           0
           0           0      100000           0          -1           0
           0           0           0           0           0           0
           0           0           0           1           1           0
           0           0           1     1000000     1000000           0
           0           0           0           0           0           0
           0           0           0           0           0           0
           0           0           0           0           0           0
           0           0           0           0           0           0
           0           0           0           0           0           0
           0           0           0           0           0           0
           0           0           0           0           0           0
           0           0           0           0
Number of contracted shells                I               18
Highest angular momentum                   I                2
Largest degree of contraction              I                7
Number of primitive shells                 I               60
Pure/Cartesian d shells                    I                0
Pure/Cartesian f shells                    I                0
Virial Ratio                               R      2.002356970335739E+00
SCF Energy                                 R     -1.876468226866441E+02
MP2 Energy                                 R     -1.881335526691791E+02
Total Energy                               R     -1.881335526691791E+02
Post-SCF wavefunction norm                 R      1.513879323475351E+00
RMS Force                                  R      9.165054017142550E-08
RMS Density                                R      1.523376364541604E-10
Atomic numbers                             I   N=           3
           6           8           8
Nuclear charges                            R   N=           3
  6.00000000E+00  8.00000000E+00  8.00000000E+00
Current cartesian coordinates              R   N=           9
  1.79286428E-11 -2.16155220E-11 -2.62649162E-12 -8.96432141E-12  1.08077610E-11
  2.22436575E+00 -8.96432141E-12  1.08077610E-11 -2.22436575E+00
Int Atom Types                             I   N=           3
           0           0           0
Force Field                                I                0
MM charges                                 R   N=           3
  0.00000000E+00  0.00000000E+00  0.00000000E+00
Integer atomic weights                     I   N=           3
          12          16          16
Real atomic weights                        R   N=           3
  1.20000000E+01  1.59949146E+01  1.59949146E+01
Atom residue info                          I   N=           3
           0           0           0
Atom fragment info                         I   N=           3
           0           0           0
Atom residue num                           I   N=           3
           0           0           0
Nuclear spins                              I   N=           3
           0           0           0
Nuclear ZEff                               R   N=           3
 -3.60000000E+00 -5.60000000E+00 -5.60000000E+00
Nuclear QMom                               R   N=           3
  0.00000000E+00  0.00000000E+00  0.00000000E+00
Nuclear GFac                               R   N=           3
  0.00000000E+00  0.00000000E+00  0.00000000E+00
MicOpt                                     I   N=           3
          -1          -1          -1
Constraint Structure                       R   N=           9
  1.79286428E-11 -2.16155220E-11 -2.62649162E-12 -8.96432141E-12  1.08077610E-11
  2.22436575E+00 -8.96432141E-12  1.08077610E-11 -2.22436575E+00
ONIOM Charges                              I   N=          16
           0           0           0           0           0           0
           0           0           0           0           0           0
           0           0           0           0
ONIOM Multiplicities                       I   N=          16
           1           0           0           0           0           0
           0           0           0           0           0           0
           0           0           0           0
Atom Layers                                I   N=           3
           0           0           0
Atom Modifiers                             I   N=           3
           0           0           0
Int Atom Modified Types                    I   N=           3
           0           0           0
Link Atoms                                 I   N=           3
           0           0           0
Atom Modified MM Charges                   R   N=           3
  0.00000000E+00  0.00000000E+00  0.00000000E+00
Link Distances                             R   N=          12
  0.00000000E+00  0.00000000E+00  0.00000000E+00  0.00000000E+00  0.00000000E+00
  0.00000000E+00  0.00000000E+00  0.00000000E+00  0.00000000E+00  0.00000000E+00
  0.00000000E+00  0.00000000E+00
MxBond                                     I                2
NBond                                      I   N=           3
           2           1           1
IBond                                      I   N=           6
           2           3           1           0           1           0
RBond                                      R   N=           6
  1.00000000E+00  1.00000000E+00  1.00000000E+00  0.00000000E+00  1.00000000E+00
  0.00000000E+00
Shell types                                I   N=          18
           0           0           0           1           1          -2
           0           0           0           1           1          -2
           0           0           0           1           1          -2
Number of primitives per shell             I   N=          18
           7           7           1           3           1           1
           7           7           1           3           1           1
           7           7           1           3           1           1
Shell to atom map                          I   N=          18
           1           1           1           1           1           1
           2           2           2           2           2           2
           3           3           3           3           3           3
Primitive exponents                        R   N=          60
  6.66500000E+03  1.00000000E+03  2.28000000E+02  6.47100000E+01  2.10600000E+01
  7.49500000E+00  2.79700000E+00  6.66500000E+03  1.00000000E+03  6.47100000E+01
  2.10600000E+01  7.49500000E+00  2.79700000E+00  5.21500000E-01  1.59600000E-01
  9.43900000E+00  2.00200000E+00  5.45600000E-01  1.51700000E-01  5.50000000E-01
  1.17200000E+04  1.75900000E+03  4.00800000E+02  1.13700000E+02  3.70300000E+01
  1.32700000E+01  5.02500000E+00  1.17200000E+04  1.75900000E+03  1.13700000E+02
  3.70300000E+01  1.32700000E+01  5.02500000E+00  1.01300000E+00  3.02300000E-01
  1.77000000E+01  3.85400000E+00  1.04600000E+00  2.75300000E-01  1.18500000E+00
  1.17200000E+04  1.75900000E+03  4.00800000E+02  1.13700000E+02  3.70300000E+01
  1.32700000E+01  5.02500000E+00  1.17200000E+04  1.75900000E+03  1.13700000E+02
  3.70300000E+01  1.32700000E+01  5.02500000E+00  1.01300000E+00  3.02300000E-01
  1.77000000E+01  3.85400000E+00  1.04600000E+00  2.75300000E-01  1.18500000E+00
Contraction coefficients                   R   N=          60
  6.93516317E-04  5.34150243E-03  2.71366714E-02  1.01992385E-01  2.75508636E-01
  4.51086433E-01  2.87565745E-01  6.28313219E-07 -5.48480000E-05 -3.63137064E-03
 -1.17983699E-02 -1.10909885E-01 -1.34742247E-01  1.10175849E+00  1.00000000E+00
  5.69792516E-02  3.13207212E-01  7.60376742E-01  1.00000000E+00  1.00000000E+00
  7.11864434E-04  5.48520199E-03  2.79099296E-02  1.05133208E-01  2.84002490E-01
  4.51673946E-01  2.73208126E-01 -3.06123094E-07 -6.17623398E-05 -4.15727069E-03
 -1.41000884E-02 -1.26138481E-01 -1.09614598E-01  1.09868833E+00  1.00000000E+00
  6.26791663E-02  3.33536566E-01  7.41239642E-01  1.00000000E+00  1.00000000E+00
  7.11864434E-04  5.48520199E-03  2.79099296E-02  1.05133208E-01  2.84002490E-01
  4.51673946E-01  2.73208126E-01 -3.06123094E-07 -6.17623398E-05 -4.15727069E-03
 -1.41000884E-02 -1.26138481E-01 -1.09614598E-01  1.09868833E+00  1.00000000E+00
  6.26791663E-02  3.33536566E-01  7.41239642E-01  1.00000000E+00  1.00000000E+00
Coordinates of each shell                  R   N=          54
  1.79286428E-11 -2.16155220E-11 -2.62649162E-12  1.79286428E-11 -2.16155220E-11
 -2.62649162E-12  1.79286428E-11 -2.16155220E-11 -2.62649162E-12  1.79286428E-11
 -2.16155220E-11 -2.62649162E-12  1.79286428E-11 -2.16155220E-11 -2.62649162E-12
  1.79286428E-11 -2.16155220E-11 -2.62649162E-12 -8.96432141E-12  1.08077610E-11
  2.22436575E+00 -8.96432141E-12  1.08077610E-11  2.22436575E+00 -8.96432141E-12
  1.08077610E-11  2.22436575E+00 -8.96432141E-12  1.08077610E-11  2.22436575E+00
 -8.96432141E-12  1.08077610E-11  2.22436575E+00 -8.96432141E-12  1.08077610E-11
  2.22436575E+00 -8.96432141E-12  1.08077610E-11 -2.22436575E+00 -8.96432141E-12
  1.08077610E-11 -2.22436575E+00 -8.96432141E-12  1.08077610E-11 -2.22436575E+00
 -8.96432141E-12  1.08077610E-11 -2.22436575E+00 -8.96432141E-12  1.08077610E-11
 -2.22436575E+00 -8.96432141E-12  1.08077610E-11 -2.22436575E+00
Alpha Orbital Energies                     R   N=          42
 -2.06555705E+01 -2.06555391E+01 -1.14769769E+01 -1.52054420E+00 -1.46709301E+00
 -7.96558914E-01 -7.33834386E-01 -7.01609550E-01 -7.01609550E-01 -5.35538098E-01
 -5.35538098E-01  2.03837571E-01  2.03837571E-01  2.45795739E-01  4.87293277E-01
  6.03058394E-01  6.03058394E-01  7.54467874E-01  9.77283772E-01  1.04848016E+00
  1.12926552E+00  1.12926552E+00  1.25544120E+00  1.25544120E+00  1.37166647E+00
  1.37166647E+00  1.41931896E+00  1.55559588E+00  1.55559588E+00  1.85569724E+00
  2.32693746E+00  2.87366913E+00  2.87366913E+00  3.00438967E+00  3.00438967E+00
  3.05157471E+00  3.10012201E+00  3.10012201E+00  3.75313325E+00  3.84197546E+00
  3.84197546E+00  3.89509026E+00
Alpha MO coefficients                      R   N=        1764
 -9.82712564E-13  1.09494899E-13 -5.98993142E-12  4.62232308E-19  1.32898998E-18
 -7.03688551E-05  1.00135353E-17 -8.71503962E-18  3.40738155E-03  8.55247163E-12
  2.55262869E-14 -3.03621469E-14  2.16148584E-18  1.32970647E-18  7.05251934E-01
  1.12345476E-02 -5.03610216E-03  2.03258739E-14 -2.45383917E-14 -1.29847289E-03
 -3.94410095E-14  4.73974013E-14  1.10407175E-03  1.40028038E-04  8.83354153E-15
 -1.02977893E-14 -6.17064515E-18  3.19762397E-18 -7.05251941E-01 -1.12345477E-02
  5.03610219E-03 -2.03213923E-14  2.45641521E-14 -1.29847291E-03  3.94280448E-14
 -4.74004084E-14  1.10407176E-03 -1.40028040E-04  8.82508090E-15 -1.02972895E-14
 -1.65042251E-18  2.64715649E-18  2.03272345E-04 -2.15159440E-05  1.23980856E-03
  7.30131168E-15 -8.80923246E-15 -3.27562493E-13 -2.95681397E-14  3.56676584E-14
  1.64636283E-11 -1.76791757E-03  4.44859698E-18 -3.96085629E-18  2.80276454E-18
 -3.11939392E-18  7.05248986E-01  1.12697202E-02 -2.53247179E-03  2.79358631E-14
 -3.36729096E-14 -1.78722652E-03  9.96413956E-15 -1.20282553E-14  8.72253902E-04
  2.72042600E-04 -1.42663881E-14  1.71991382E-14 -1.10269711E-17 -2.51768168E-16
  7.05248979E-01  1.12697201E-02 -2.53247174E-03  2.79305378E-14 -3.36950789E-14
  1.78722651E-03  9.97276297E-15 -1.20236190E-14 -8.72253892E-04  2.72042599E-04
  1.42791475E-14 -1.72052590E-14 -6.01489451E-18  2.71568672E-16  9.97408275E-01
  1.69366248E-02  5.99171981E-04 -1.52556840E-14  1.83787076E-14 -2.61569258E-14
 -2.94758548E-14  3.55298620E-14 -4.99465492E-15  3.01021253E-03 -1.77622079E-17
  2.19097614E-17  3.32873035E-17  8.20168513E-19 -4.87667812E-04  3.39957633E-05
 -2.64368320E-03 -9.73217964E-15  1.17332429E-14  3.80189583E-05 -3.09819538E-14
  3.73647414E-14  1.79922535E-03  3.36750585E-05  1.37438201E-14 -1.66188692E-14
 -5.25022536E-17 -7.16813120E-18 -4.87667812E-04  3.39957633E-05 -2.64368320E-03
 -9.73546748E-15  1.17422259E-14 -3.80189583E-05 -3.09958396E-14  3.73694301E-14
 -1.79922535E-03  3.36750585E-05 -1.37837840E-14  1.66104238E-14 -5.64271558E-17
 -7.10847527E-18 -1.39906203E-01  2.93317700E-01  1.03121696E-01 -2.90055099E-12
  3.49694991E-12 -1.16970951E-11  3.21899321E-13 -3.88108872E-13 -3.19584074E-13
  6.14535479E-02  1.56149423E-17  9.32739654E-18 -1.79670124E-16 -1.03360412E-17
 -1.31299671E-01  2.73298202E-01  2.45403370E-01  7.28692201E-13 -8.78305392E-13
 -9.97408531E-02 -9.58342834E-14  1.15496563E-13 -2.88382904E-02  1.29415966E-02
 -8.82913474E-14  1.06405549E-13  1.92319153E-16  3.41646833E-17 -1.31299671E-01
  2.73298202E-01  2.45403370E-01  7.28528623E-13 -8.78479953E-13  9.97408531E-02
 -9.58772711E-14  1.15439233E-13  2.88382904E-02  1.29415966E-02  8.83072608E-14
 -1.06356219E-13  2.58175490E-17  2.99124757E-17 -4.37172339E-12  9.35736796E-12
  3.81905910E-12  3.97346468E-17  1.08914025E-17  3.20655622E-01  4.64844872E-17
  6.22993436E-18  1.32464424E-02  2.06852280E-12 -1.23346983E-12  1.48705101E-12
 -6.86796742E-17 -1.34857959E-17 -1.41662487E-01  3.07966770E-01  2.76207926E-01
  1.41992890E-12 -1.71176134E-12 -1.01749853E-01  5.05420088E-13 -6.09279681E-13
 -1.60770196E-02  1.24082950E-02 -4.39510174E-13  5.29798354E-13  3.68063062E-18
 -3.84166010E-18  1.41662487E-01 -3.07966770E-01 -2.76207926E-01 -1.41977785E-12
  1.71195476E-12 -1.01749853E-01 -5.05398475E-13  6.09439747E-13 -1.60770196E-02
 -1.24082950E-02 -4.39636823E-13  5.29941279E-13  9.19078064E-17 -1.28355009E-17
 -1.22754343E-01  3.34102835E-01  1.05186805E-01 -2.35009878E-12  2.83371946E-12
 -4.07217192E-12  1.05420673E-12 -1.27072205E-12  7.73604096E-13  1.56333753E-02
 -1.46283461E-16 -8.88451863E-17 -7.84587592E-16 -1.99092793E-17  8.28057093E-02
 -1.92599511E-01 -3.00192077E-01  2.06570858E-12 -2.49034603E-12 -3.25100028E-01
  7.85464911E-13 -9.47075808E-13 -1.87987415E-01  1.89683051E-02 -3.01206895E-13
  3.62974836E-13  5.15635490E-17  1.98118782E-18  8.28057093E-02 -1.92599511E-01
 -3.00192077E-01  2.06603996E-12 -2.49035290E-12  3.25100028E-01  7.85611225E-13
 -9.46915538E-13  1.87987415E-01  1.89683051E-02  3.01120394E-13 -3.63180397E-13
  9.97192318E-17  2.48677987E-17 -1.71896555E-12  4.81991737E-12  3.12921088E-12
 -5.22955756E-16  1.17793816E-16  3.83204594E-01 -1.78178599E-16  1.12215757E-16
 -5.11650826E-02  2.82230712E-13 -2.92091794E-13  3.52431319E-13 -4.10101970E-16
  8.32401205E-18  6.05946929E-02 -1.46029078E-01 -2.26194876E-01  5.46230690E-12
 -6.58623564E-12 -3.81340812E-01  3.46624147E-12 -4.17948274E-12 -2.05069518E-01
  2.11499516E-02 -6.42309834E-13  7.74488800E-13  6.47520102E-17 -1.15412271E-17
 -6.05946929E-02  1.46029078E-01  2.26194876E-01 -5.46381526E-12  6.58648468E-12
 -3.81340812E-01 -3.46703691E-12  4.17943190E-12 -2.05069518E-01 -2.11499516E-02
 -6.42267532E-13  7.74692505E-13  3.23849116E-17 -1.26709789E-17 -1.04340601E-12
  2.57544042E-12  4.14336203E-12  3.50526825E-01  1.03887302E-01  7.03017928E-16
  1.36504310E-01  4.04564316E-02 -2.08599271E-16  1.28980855E-12 -7.98461322E-13
 -2.36501204E-13 -8.53236692E-13  5.71611470E-13  1.57365115E-13 -6.94650361E-13
 -1.08712885E-12  3.45400058E-01  1.02367858E-01  2.95554231E-12  2.13782710E-01
  6.33597985E-02  1.88285508E-12 -4.51289120E-13 -2.63033727E-02 -7.79565566E-03
  4.96536281E-13 -3.32968876E-13  1.57107157E-13 -6.93886822E-13 -1.08647613E-12
  3.45400058E-01  1.02367858E-01 -2.95660585E-12  2.13782710E-01  6.33597985E-02
 -1.88342344E-12 -4.51465472E-13  2.63033727E-02  7.79565566E-03  4.96549729E-13
 -3.32544522E-13  2.43886008E-12 -6.01969341E-12 -9.68024799E-12 -1.03887302E-01
  3.50526825E-01 -6.27577637E-16 -4.04564316E-02  1.36504310E-01  9.47217552E-16
 -3.01309116E-12  2.36291221E-13 -7.97512966E-13 -5.71891465E-13 -8.53229078E-13
 -3.67647619E-13  1.62372121E-12  2.53749069E-12 -1.02367858E-01  3.45400058E-01
 -6.90798072E-12 -6.33597985E-02  2.13782710E-01 -4.39966632E-12  1.05468535E-12
  7.79565566E-03 -2.63033727E-02  3.32885999E-13  4.96489073E-13 -3.67625121E-13
  1.62339908E-12  2.53843209E-12 -1.02367858E-01  3.45400058E-01  6.90870577E-12
 -6.33597985E-02  2.13782710E-01  4.39976606E-12  1.05469419E-12 -7.79565566E-03
  2.63033727E-02  3.32506967E-13  4.96561828E-13 -2.04731568E-17  7.79956649E-16
  5.41144672E-16  1.07768721E-12  5.09615790E-13  1.89435513E-13  1.24541708E-12
  5.88073469E-13  1.34017514E-12  3.08539097E-16  8.89914135E-02  4.20696296E-02
  1.91780416E-17  1.61242114E-16  1.15077365E-13 -1.31839501E-14 -8.44064401E-13
  4.04454075E-01  1.91200841E-01  2.97379787E-12  2.96213400E-01  1.40031353E-01
  2.11475061E-12 -1.32648418E-13 -1.37712054E-02 -6.51017314E-03  2.95550866E-13
 -1.37936794E-13 -1.14925222E-13  1.28116659E-14  8.42744300E-13 -4.04454075E-01
 -1.91200841E-01  2.97403569E-12 -2.96213400E-01 -1.40031353E-01  2.11371648E-12
  1.32965559E-13 -1.37712054E-02 -6.51017314E-03 -2.95496381E-13  1.38014590E-13
 -1.31634448E-17  3.95908321E-16  2.08767766E-15 -5.09680312E-13  1.07827806E-12
 -7.39044711E-13 -5.88967850E-13  1.24549277E-12 -5.22884622E-12  5.37536119E-16
 -4.20696296E-02  8.89914135E-02 -1.13806357E-16 -2.57511558E-17 -4.48903219E-13
  5.19728528E-14  3.28841367E-12 -1.91200841E-01  4.04454075E-01 -1.16057050E-11
 -1.40031353E-01  2.96213400E-01 -8.25016325E-12  5.18430440E-13  6.51017314E-03
 -1.37712054E-02  1.38198470E-13  2.95485749E-13  4.48955315E-13 -5.14491065E-14
 -3.29149141E-12  1.91200841E-01 -4.04454075E-01 -1.16061284E-11  1.40031353E-01
 -2.96213400E-01 -8.25176062E-12 -5.18143635E-13  6.51017314E-03 -1.37712054E-02
 -1.37765489E-13 -2.95540025E-13  1.82553281E-11 -5.17207044E-13 -4.43432162E-10
 -1.13217768E-01  5.19513149E-01 -2.30874044E-17 -1.66906473E-01  7.65870136E-01
  4.02509253E-16 -2.08708135E-12 -3.83444551E-14  1.74419865E-13  1.20423461E-12
  1.54017003E-12 -1.48631274E-11  2.34489134E-11  1.70066298E-10  6.95825117E-02
 -3.19287602E-01 -4.78897230E-11  9.65090371E-02 -4.42843155E-01 -1.02841709E-10
  6.84474017E-12  3.05261529E-03 -1.40072871E-02  2.07906537E-13  2.65800706E-13
 -1.48631841E-11  2.34489180E-11  1.70066728E-10  6.95825117E-02 -3.19287602E-01
  4.78896230E-11  9.65090371E-02 -4.42843155E-01  1.02841806E-10  6.84487922E-12
 -3.05261529E-03  1.40072871E-02  2.07792056E-13  2.65467427E-13 -9.45416136E-12
  2.67488258E-13  2.29649656E-10  5.19513149E-01  1.13217768E-01 -1.34657520E-16
  7.65870136E-01  1.66906473E-01  3.86269196E-16  1.08122134E-12  1.76402545E-13
  3.83614207E-14  1.53942291E-12 -1.20455730E-12  7.69746152E-12 -1.21437850E-11
 -8.80762680E-11 -3.19287602E-01 -6.95825117E-02  2.48013362E-11 -4.42843155E-01
 -9.65090371E-02  5.32610627E-11 -3.54492774E-12 -1.40072871E-02 -3.05261529E-03
  2.65750796E-13 -2.07857145E-13  7.69743703E-12 -1.21438393E-11 -8.80759860E-11
 -3.19287602E-01 -6.95825117E-02 -2.48014125E-11 -4.42843155E-01 -9.65090371E-02
 -5.32607468E-11 -3.54483694E-12  1.40072871E-02  3.05261529E-03  2.65734894E-13
 -2.07684129E-13 -8.06752524E-02 -3.83206793E-02  2.25911950E+00 -8.09793609E-11
  9.76320964E-11  1.08472554E-12 -1.43144844E-10  1.72581745E-10 -1.99004038E-12
  2.61882720E-02 -9.93471884E-17  3.05005676E-17  2.18815906E-15 -1.84283148E-17
  7.48365890E-02 -1.17217584E-01 -9.14462699E-01  4.67726511E-11 -5.63911358E-11
  2.37965533E-01  6.57342234E-11 -7.92517833E-11  5.59173933E-01 -3.23707216E-02
  3.34720657E-12 -4.03564768E-12 -4.12221127E-16 -2.21660838E-17  7.48365890E-02
 -1.17217584E-01 -9.14462699E-01  4.67727315E-11 -5.63911978E-11 -2.37965533E-01
  6.57341055E-11 -7.92519767E-11 -5.59173933E-01 -3.23707216E-02 -3.34740375E-12
  4.03590083E-12 -8.57868663E-17  5.80327343E-18 -5.67452342E-13 -4.32383696E-13
 -3.79041081E-12 -3.21025937E-16 -6.60165134E-16  2.54268524E-02  1.22210709E-16
  2.40344125E-16  2.84518469E+00 -4.54573965E-13 -3.79133195E-12  4.57107228E-12
  3.81579446E-15  2.90842818E-17  8.18517358E-02 -2.29379664E-02 -1.84863483E+00
 -4.08992831E-12  4.93084080E-12 -7.52160286E-02 -1.24861367E-11  1.50539936E-11
  4.04909751E-01 -2.15070365E-02 -1.89168949E-14  2.28460288E-14 -8.16535750E-16
 -1.42495543E-16 -8.18517358E-02  2.29379664E-02  1.84863483E+00  4.08993725E-12
 -4.93110352E-12 -7.52160286E-02  1.24864863E-11 -1.50537786E-11  4.04909751E-01
  2.15070365E-02 -1.88001132E-14  2.27985796E-14  5.24843698E-16 -9.57598190E-17
 -6.97486665E-13  2.21866319E-11 -2.04429950E-11 -9.61945183E-02 -9.60783086E-01
 -1.87753967E-16  1.20643782E-01  1.20498036E+00 -1.48567069E-15  2.46748266E-12
 -1.43969490E-14 -1.44204753E-13  1.15696092E-12  7.79074292E-13 -5.46651528E-14
  6.76623352E-13 -3.66689345E-12 -3.39796427E-03 -3.39385929E-02  3.66067274E-13
 -1.37546957E-02 -1.37380791E-01  5.17289388E-13 -1.07846686E-12  3.70571314E-03
  3.70123638E-02 -5.21614128E-13 -3.51239341E-13 -5.45689686E-14  6.76662163E-13
 -3.66906393E-12 -3.39796427E-03 -3.39385929E-02 -3.66033951E-13 -1.37546957E-02
 -1.37380791E-01 -5.17948205E-13 -1.07849286E-12 -3.70571314E-03 -3.70123638E-02
 -5.21629302E-13 -3.51320291E-13  7.07055970E-13 -2.24913829E-11  2.07228118E-11
 -9.60783086E-01  9.61945183E-02 -3.79372346E-17  1.20498036E+00 -1.20643782E-01
 -5.03671303E-16 -2.50166590E-12 -1.45572398E-13  1.47013187E-14  7.79051579E-13
 -1.15662668E-12  5.53399735E-14 -6.85904507E-13  3.71920288E-12 -3.39385929E-02
  3.39796427E-03 -3.71011014E-13 -1.37380791E-01  1.37546957E-02 -5.25209583E-13
  1.09333733E-12  3.70123638E-02 -3.70571314E-03 -3.51278798E-13  5.21688095E-13
  5.53499305E-14 -6.85984073E-13  3.71867946E-12 -3.39385929E-02  3.39796427E-03
  3.71051978E-13 -1.37380791E-01  1.37546957E-02  5.24945368E-13  1.09332733E-12
 -3.70123638E-02  3.70571314E-03 -3.51309837E-13  5.21669489E-13  7.97963668E-02
 -1.17732883E+00  2.13809665E+00  9.37795784E-12 -1.13072244E-11 -1.40553608E-11
 -1.25784532E-11  1.51647433E-11  4.99197913E-12  5.56428745E-01 -8.47025897E-17
  1.71223488E-16  3.51384584E-15 -8.30737028E-17 -1.45009073E-02  1.03055663E-01
 -8.56065642E-01  3.34138026E-12 -4.02827737E-12 -3.24710185E-01 -9.24842075E-12
  1.11507291E-11  3.74354101E-01 -9.06080324E-02  1.81538927E-12 -2.18893884E-12
 -6.71204693E-16  1.66064550E-17 -1.45009073E-02  1.03055663E-01 -8.56065642E-01
  3.34163041E-12 -4.02854298E-12  3.24710185E-01 -9.24903075E-12  1.11509857E-11
 -3.74354102E-01 -9.06080324E-02 -1.81566352E-12  2.18868150E-12  2.79002655E-16
  1.37842708E-17 -1.63926733E-13 -1.94985742E-11  1.33649191E-11 -1.47059273E-16
 -2.59586235E-16  1.14262600E+00 -6.66817608E-17  1.40563126E-16 -3.26605862E-02
  7.63036320E-12  6.24154364E-12 -7.52475714E-12  1.46851537E-14  5.71352387E-17
  5.48378066E-02 -1.40849986E-01 -4.51970936E-01  4.34145871E-12 -5.23395778E-12
 -6.19806118E-02 -2.14865412E-11  2.59046862E-11  9.83913375E-01  7.60195712E-02
 -2.24096618E-12  2.70196763E-12  5.60172188E-16 -1.78046175E-17 -5.48378066E-02
  1.40849986E-01  4.51970936E-01 -4.34137925E-12  5.23407967E-12 -6.19806118E-02
  2.14865551E-11 -2.59049332E-11  9.83913375E-01 -7.60195712E-02 -2.24108071E-12
  2.70200571E-12  6.77794125E-16 -2.36563947E-17  7.08427813E-02  1.29863535E+00
  8.95633695E-01 -1.14066298E-11  1.37519408E-11  5.14114275E-12 -2.46776641E-12
  2.97602200E-12  1.49317181E-12  4.24088798E-01  1.48822410E-16 -8.04746876E-16
  1.41541644E-14  2.15665844E-16  4.47197281E-02 -1.45963695E-01 -7.57632921E-01
  2.39678361E-12 -2.88935093E-12 -3.30518594E-01 -1.64916342E-11  1.98817651E-11
  1.25456599E+00 -7.85431499E-04  4.38641830E-13 -5.29087993E-13  3.96853593E-16
  7.01602727E-17  4.47197281E-02 -1.45963695E-01 -7.57632921E-01  2.39644949E-12
 -2.88879487E-12  3.30518594E-01 -1.64901977E-11  1.98806901E-11 -1.25456599E+00
 -7.85431500E-04 -4.38619384E-13  5.28969983E-13  4.03155887E-16  5.97155114E-17
 -2.74986253E-17 -8.49001900E-16 -9.36004047E-16  2.79433839E-15 -6.96264099E-13
 -1.28551472E-11 -2.26245425E-14  5.47364389E-12  1.46722167E-11 -2.69064754E-16
  2.22262762E-03 -4.69854497E-01 -1.78547524E-15 -1.34415463E-15  3.02468451E-13
 -6.22311918E-12  1.04669375E-11  2.68077975E-03 -5.66706005E-01  1.13471212E-11
 -4.20506146E-03  8.88932998E-01 -3.18233782E-11 -8.75866000E-13 -7.33499606E-05
  1.55058852E-02 -4.21431876E-13 -3.52866228E-13 -3.02513306E-13  6.22275539E-12
 -1.04651129E-11 -2.68077975E-03  5.66706005E-01  1.13471368E-11  4.20506146E-03
 -8.88932998E-01 -3.18217902E-11  8.75745919E-13 -7.33499606E-05  1.55058852E-02
  4.21198720E-13  3.52852221E-13  3.10089558E-17  1.14888362E-15 -5.51013229E-16
 -6.95081865E-13 -3.66440548E-15  1.05604365E-11  5.49114972E-12  2.66107770E-14
 -1.20527110E-11 -4.93773170E-18 -4.69854497E-01 -2.22262762E-03  3.69157145E-16
  8.32921870E-16 -2.48453901E-13  5.11178226E-12 -8.59769340E-12 -5.66706005E-01
 -2.68077975E-03 -9.32176350E-12  8.88932998E-01  4.20506146E-03  2.61425888E-11
  7.19480926E-13  1.55058852E-02  7.33499606E-05 -3.52872893E-13  4.21566926E-13
  2.48506685E-13 -5.11238463E-12  8.59817188E-12  5.66706005E-01  2.68077975E-03
 -9.32134911E-12 -8.88932998E-01 -4.20506146E-03  2.61413517E-11 -7.19468919E-13
  1.55058852E-02  7.33499606E-05  3.52893313E-13 -4.21114147E-13  2.54186247E-16
  2.23725439E-15  4.00183796E-15 -6.99048910E-13  3.47038572E-13  4.20677217E-15
  1.76737150E-12 -8.82350747E-13  1.28272176E-16  1.19295060E-15  5.62991483E-16
  8.20995599E-16 -2.24161608E-01  9.50482683E-01  3.87350754E-16 -3.24275692E-15
 -1.69829996E-15 -1.34981932E-11  6.69677241E-12 -2.25535453E-16  5.12982814E-12
 -2.54052789E-12  5.76582599E-15  4.63862042E-16 -1.65457364E-12  8.21613127E-13
 -1.70897897E-02  7.24635645E-02 -1.14263897E-16  1.44170459E-15 -1.98878966E-15
 -1.34984566E-11  6.69885448E-12  2.33615522E-15  5.13134344E-12 -2.54163285E-12
 -1.79565271E-15 -4.36782005E-16  1.65444272E-12 -8.21854197E-13 -1.70897897E-02
  7.24635645E-02 -1.10773886E-15 -1.14629233E-14 -1.62779592E-14  3.46811288E-13
  6.99719205E-13 -1.82041180E-14 -8.73786890E-13 -1.77201447E-12 -2.16205433E-16
 -5.16689498E-15  8.83813556E-16  4.29788148E-16  9.50482683E-01  2.24161608E-01
 -1.72257946E-15  1.44851814E-14  6.76961949E-15  6.70410829E-12  1.34927912E-11
  1.04125344E-15 -2.55203818E-12 -5.12320639E-12 -2.55329878E-14 -2.01815379E-15
  8.21185748E-13  1.65465037E-12  7.24635645E-02  1.70897897E-02  4.63395258E-16
 -5.79257877E-15  8.38491158E-15  6.70370513E-12  1.34967226E-11 -1.03908705E-14
 -2.55054624E-12 -5.12682073E-12  8.70621205E-15  1.85254065E-15 -8.21413195E-13
 -1.65490149E-12  7.24635645E-02  1.70897897E-02  1.68181949E-13  2.06900868E-11
  1.76836235E-11 -2.26947572E-03  5.35750965E-02  4.14637394E-16  3.79361577E-02
 -8.95551907E-01 -7.34869831E-16  2.04684388E-11 -1.74400427E-13  4.12069297E-12
  1.45129695E-11  1.31099279E-11 -4.75483860E-13  1.46515104E-11 -2.96351501E-11
  2.89607732E-02 -6.83671653E-01  2.02400832E-11 -4.61687512E-02  1.08989723E+00
 -6.22839709E-12 -1.26164072E-12 -1.97696566E-03  4.66698653E-02  3.12337332E-13
  2.82008346E-13 -4.75510038E-13  1.46522765E-11 -2.96364998E-11  2.89607732E-02
 -6.83671653E-01 -2.02394869E-11 -4.61687512E-02  1.08989723E+00  6.22787050E-12
 -1.26160594E-12  1.97696566E-03 -4.66698653E-02  3.12299700E-13  2.81800349E-13
 -1.27825608E-13 -1.57310991E-11 -1.34460862E-11  5.35750965E-02  2.26947572E-03
 -5.11168351E-16 -8.95551907E-01 -3.79361577E-02 -8.32267299E-16 -1.55633725E-11
  4.10584475E-12  1.74905767E-13  1.31200491E-11 -1.45165326E-11  3.61543476E-13
 -1.11412424E-11  2.25350722E-11 -6.83671653E-01 -2.89607732E-02 -1.53904543E-11
  1.08989723E+00  4.61687512E-02  4.73663849E-12  9.59203593E-13  4.66698653E-02
  1.97696566E-03  2.82651458E-13 -3.12442687E-13  3.61612029E-13 -1.11411141E-11
  2.25334252E-11 -6.83671653E-01 -2.89607732E-02  1.53893441E-11  1.08989723E+00
  4.61687512E-02 -4.73602536E-12  9.59316159E-13 -4.66698653E-02 -1.97696566E-03
  2.82778271E-13 -3.12610886E-13  2.58859763E-13 -7.80149220E-12  6.37873376E-12
  8.22129281E-17 -8.85054425E-17  6.34057675E-01 -7.11467844E-16  3.76036130E-16
  2.91372831E-01  3.66496824E-12  1.03988370E-10 -1.25372829E-10  7.82471446E-15
  4.64027343E-17  2.77867542E-02 -1.52556705E-01 -2.77102540E-01 -5.86431107E-11
  7.07021125E-11  7.60013815E-01 -7.87305342E-13  9.49841418E-13 -4.97350895E-01
  4.78734425E-02 -1.04280093E-11  1.25727154E-11  3.69523512E-16  2.73356793E-17
 -2.77867542E-02  1.52556705E-01  2.77102540E-01  5.86420053E-11 -7.07016132E-11
  7.60013815E-01  7.88918320E-13 -9.50752691E-13 -4.97350895E-01 -4.78734425E-02
 -1.04282190E-11  1.25726569E-11  9.33251916E-16  3.10241304E-17  6.31661327E-18
  3.76448116E-16 -1.35366350E-15 -7.27942390E-13 -7.02010572E-13  9.59197184E-12