 DBCSR| Multiplication driver                                                SMM
 DBCSR| Multiplication stack size                                           1000
 DBCSR| Multiplication size stacks                                             0
 DBCSR| Use subcommunicators                                                   F
 DBCSR| Use MPI combined types                                                 F
 DBCSR| Use MPI memory allocation                                              T
 DBCSR| Use Communication thread                                               T
 DBCSR| Communication thread load                                            100


  **** **** ******  **  PROGRAM STARTED AT               2012-12-31 04:29:17.317
 ***** ** ***  *** **   PROGRAM STARTED ON                                   f19
 **    ****   ******    PROGRAM STARTED BY                                      
 ***** **    ** ** **   PROGRAM PROCESS ID                                 17877
  **** **  *******  **  PROGRAM STARTED IN /fusion/gpfs/home/jlow/pyrosilicate/p
                                           yrosilic_acid_hydrate/cp2k/geom_opt

 CP2K| version string:                                          CP2K version 2.3
 CP2K| source code revision number:                                        12343
 CP2K| is freely available from                             http://www.cp2k.org/
 CP2K| Program compiled at                          Tue Oct 30 22:43:22 CDT 2012
 CP2K| Program compiled on                                               flogin2
 CP2K| Program compiled for                                   Linux-x86-64-intel
 CP2K| Input file name                                               quickie.inp
 
 GLOBAL| Force Environment number                                              1
 GLOBAL| Basis set file name            /homes/jlow/cp2k-2_3-branch/cp2k/tests/Q
 GLOBAL| Geminal file name                                         BASIS_GEMINAL
 GLOBAL| Potential file name            /homes/jlow/cp2k-2_3-branch/cp2k/tests/Q
 GLOBAL| MM Potential file name                                     MM_POTENTIAL
 GLOBAL| Coordinate file name                                          final.xyz
 GLOBAL| Method name                                                        CP2K
 GLOBAL| Project name                                               quickie2_vib
 GLOBAL| Preferred FFT library                                            FFTMKL
 GLOBAL| Run type                                           VIBRATIONAL_ANALYSIS
 GLOBAL| All-to-all communication in single precision                          F
 GLOBAL| FFTs using library dependent lengths                                  F
 GLOBAL| Global print level                                               MEDIUM
 GLOBAL| Total number of message passing processes                           576
 GLOBAL| Number of threads for this process                                    1
 GLOBAL| This output is from process                                           0

 MEMORY| system memory details [Kb]
 MEMORY|                        rank 0           min           max       average
 MEMORY| MemTotal                    0             0             0             0
 MEMORY| MemFree                     0             0             0             0
 MEMORY| Buffers                     0             0             0             0
 MEMORY| Cached                      0             0             0             0
 MEMORY| Slab                        0             0             0             0
 MEMORY| SReclaimable                0             0             0             0
 MEMORY| MemLikelyFree               0             0             0             0


 *** Fundamental physical constants (SI units) ***

 *** Literature: B. J. Mohr and B. N. Taylor,
 ***             CODATA recommended values of the fundamental physical
 ***             constants: 2006, Web Version 5.1
 ***             http://physics.nist.gov/constants

 Speed of light in vacuum [m/s]                             2.99792458000000E+08
 Magnetic constant or permeability of vacuum [N/A**2]       1.25663706143592E-06
 Electric constant or permittivity of vacuum [F/m]          8.85418781762039E-12
 Planck constant (h) [J*s]                                  6.62606896000000E-34
 Planck constant (h-bar) [J*s]                              1.05457162825177E-34
 Elementary charge [C]                                      1.60217648700000E-19
 Electron mass [kg]                                         9.10938215000000E-31
 Electron g factor [ ]                                     -2.00231930436220E+00
 Proton mass [kg]                                           1.67262163700000E-27
 Fine-structure constant                                    7.29735253760000E-03
 Rydberg constant [1/m]                                     1.09737315685270E+07
 Avogrado constant [1/mol]                                  6.02214179000000E+23
 Boltzmann constant [J/K]                                   1.38065040000000E-23
 Atomic mass unit [kg]                                      1.66053878200000E-27
 Bohr radius [m]                                            5.29177208590000E-11

 *** Conversion factors ***

 [u] -> [a.u.]                                              1.82288848426455E+03
 [Angstrom] -> [Bohr] = [a.u.]                              1.88972613288564E+00
 [a.u.] = [Bohr] -> [Angstrom]                              5.29177208590000E-01
 [a.u.] -> [s]                                              2.41888432650478E-17
 [a.u.] -> [fs]                                             2.41888432650478E-02
 [a.u.] -> [J]                                              4.35974393937059E-18
 [a.u.] -> [K]                                              3.15774647902944E+05
 [a.u.] -> [kJ/mol]                                         2.62549961709828E+03
 [a.u.] -> [kcal/mol]                                       6.27509468713739E+02
 [a.u.] -> [Pa]                                             2.94210107994716E+13
 [a.u.] -> [bar]                                            2.94210107994716E+08
 [a.u.] -> [atm]                                            2.90362800883016E+08
 [a.u.] -> [eV]                                             2.72113838565563E+01
 [a.u.] -> [Hz]                                             6.57968392072181E+15
 [a.u.] -> [1/cm] (wave numbers)                            2.19474631370540E+05
 [a.u./Bohr**2] -> [1/cm]                                   5.14048714338585E+03
 

 CELL| Volume [angstrom^3]:                                             8000.000
 CELL| Vector a [angstrom]:      20.000     0.000     0.000    |a| =      20.000
 CELL| Vector b [angstrom]:       0.000    20.000     0.000    |b| =      20.000
 CELL| Vector c [angstrom]:       0.000     0.000    20.000    |c| =      20.000
 CELL| Angle (b,c), alpha [degree]:                                       90.000
 CELL| Angle (a,c), beta  [degree]:                                       90.000
 CELL| Angle (a,b), gamma [degree]:                                       90.000

 CELL_REF| Volume [angstrom^3]:                                         8000.000
 CELL_REF| Vector a [angstrom    20.000     0.000     0.000    |a| =      20.000
 CELL_REF| Vector b [angstrom     0.000    20.000     0.000    |b| =      20.000
 CELL_REF| Vector c [angstrom     0.000     0.000    20.000    |c| =      20.000
 CELL_REF| Angle (b,c), alpha [degree]:                                   90.000
 CELL_REF| Angle (a,c), beta  [degree]:                                   90.000
 CELL_REF| Angle (a,b), gamma [degree]:                                   90.000

 CELL_TOP| Volume [angstrom^3]:                                         8000.000
 CELL_TOP| Vector a [angstrom    20.000     0.000     0.000    |a| =      20.000
 CELL_TOP| Vector b [angstrom     0.000    20.000     0.000    |b| =      20.000
 CELL_TOP| Vector c [angstrom     0.000     0.000    20.000    |c| =      20.000
 CELL_TOP| Angle (b,c), alpha [degree]:                                   90.000
 CELL_TOP| Angle (a,c), beta  [degree]:                                   90.000
 CELL_TOP| Angle (a,b), gamma [degree]:                                   90.000

 *******************************************************************************
 *******************************************************************************
 **                                                                           **
 **     #####                         ##              ##                      **
 **    ##   ##            ##          ##              ##                      **
 **   ##     ##                       ##            ######                    **
 **   ##     ##  ##   ##  ##   #####  ##  ##   ####   ##    #####    #####    **
 **   ##     ##  ##   ##  ##  ##      ## ##   ##      ##   ##   ##  ##   ##   **
 **   ##  ## ##  ##   ##  ##  ##      ####     ###    ##   ######   ######    **
 **    ##  ###   ##   ##  ##  ##      ## ##      ##   ##   ##       ##        **
 **     #######   #####   ##   #####  ##  ##  ####    ##    #####   ##        **
 **           ##                                                    ##        **
 **                                                                           **
 **                                                ... make the atoms dance   **
 **                                                                           **
 **            Copyright (C) by CP2K Developers Group (2000 - 2012)           **
 **                                                                           **
 *******************************************************************************

 DFT| Spin restricted Kohn-Sham (RKS) calculation                            RKS
 DFT| Multiplicity                                                             1
 DFT| Number of spin states                                                    1
 DFT| Charge                                                                   0
 DFT| Self-interaction correction (SIC)                                       NO
 DFT| Cutoffs: density                                              1.000000E-10
 DFT|          gradient                                             1.000000E-10
 DFT|          tau                                                  1.000000E-10
 DFT|          cutoff_smoothing_range                               0.000000E+00
 DFT| XC density smoothing                                                  NONE
 DFT| XC derivatives                                                          PW
 FUNCTIONAL| ROUTINE=NEW
 FUNCTIONAL| PBE:
 FUNCTIONAL| J.P.Perdew, K.Burke, M.Ernzerhof, Phys. Rev. Letter, vol. 77, n 18,
 FUNCTIONAL|  pp. 3865-3868, (1996){spin unpolarized}

 QS| Method:                                                                 GPW
 QS| Density plane wave grid type                        NON-SPHERICAL FULLSPACE
 QS| Number of grid levels:                                                    6
 QS| Density cutoff [a.u.]:                                                400.0
 QS| Multi grid cutoff [a.u.]: 1) grid level                               400.0
 QS|                           2) grid level                               133.3
 QS|                           3) grid level                                44.4
 QS|                           4) grid level                                14.8
 QS|                           5) grid level                                 4.9
 QS|                           6) grid level                                 1.6
 QS| Grid level progression factor:                                          3.0
 QS| Relative density cutoff [a.u.]:                                        20.0
 QS| Consistent realspace mapping and integration 
 QS| Interaction thresholds: eps_pgf_orb:                                1.0E-08
 QS|                         eps_filter_matrix:                          0.0E+00
 QS|                         eps_core_charge:                            1.0E-18
 QS|                         eps_rho_gspace:                             1.0E-16
 QS|                         eps_rho_rspace:                             1.0E-16
 QS|                         eps_gvg_rspace:                             1.0E-08
 QS|                         eps_ppl:                                    1.0E-02
 QS|                         eps_ppnl:                                   1.0E-10


 ATOMIC KIND INFORMATION

  1. Atomic kind: Si                                    Number of atoms:       2

     Orbital basis set information for                     DZVP-MOLOPT-SR-GTH-q4

       Number of orbital shell sets:                                           1
       Number of orbital shells:                                               5
       Number of primitive Cartesian functions:                                4
       Number of Cartesian basis functions:                                   14
       Number of spherical basis functions:                                   13

       Normalised Cartesian orbitals:

                        Set   Shell   Orbital            Exponent    Coefficient

                          1       1    2s                1.256768       0.294045
                                                         0.506394      -0.015884
                                                         0.238884      -0.207657
                                                         0.087337      -0.036225

                          1       2    3s                1.256768      -1.532347
                                                         0.506394       0.524539
                                                         0.238884       0.025013
                                                         0.087337      -0.052203

                          1       3    3px               1.256768       0.152274
                                                         0.506394      -0.154145
                                                         0.238884      -0.115581
                                                         0.087337      -0.028372
                          1       3    3py               1.256768       0.152274
                                                         0.506394      -0.154145
                                                         0.238884      -0.115581
                                                         0.087337      -0.028372
                          1       3    3pz               1.256768       0.152274
                                                         0.506394      -0.154145
                                                         0.238884      -0.115581
                                                         0.087337      -0.028372

                          1       4    4px               1.256768       0.313378
                                                         0.506394      -0.415360
                                                         0.238884      -0.022539
                                                         0.087337       0.078473
                          1       4    4py               1.256768       0.313378
                                                         0.506394      -0.415360
                                                         0.238884      -0.022539
                                                         0.087337       0.078473
                          1       4    4pz               1.256768       0.313378
                                                         0.506394      -0.415360
                                                         0.238884      -0.022539
                                                         0.087337       0.078473

                          1       5    4dx2              1.256768       0.325879
                                                         0.506394       0.163831
                                                         0.238884       0.044076
                                                         0.087337       0.010608
                          1       5    4dxy              1.256768       0.564439
                                                         0.506394       0.283764
                                                         0.238884       0.076342
                                                         0.087337       0.018373
                          1       5    4dxz              1.256768       0.564439
                                                         0.506394       0.283764
                                                         0.238884       0.076342
                                                         0.087337       0.018373
                          1       5    4dy2              1.256768       0.325879
                                                         0.506394       0.163831
                                                         0.238884       0.044076
                                                         0.087337       0.010608
                          1       5    4dyz              1.256768       0.564439
                                                         0.506394       0.283764
                                                         0.238884       0.076342
                                                         0.087337       0.018373
                          1       5    4dz2              1.256768       0.325879
                                                         0.506394       0.163831
                                                         0.238884       0.044076
                                                         0.087337       0.010608

     Potential information for                                        GTH-PBE-q4

       Description:                       Goedecker-Teter-Hutter pseudopotential
                                           Goedecker et al., PRB 54, 1703 (1996)
                                          Hartwigsen et al., PRB 58, 3641 (1998)
                                                      Krack, TCA 114, 145 (2005)

       Gaussian exponent of the core charge distribution:               2.582645
       Electronic configuration (s p d ...):                               2   2

       Parameters of the local part of the GTH pseudopotential:

                          rloc        C1          C2          C3          C4
                        0.440000   -6.269288

       Parameters of the non-local part of the GTH pseudopotential:

                   l      r(l)      h(i,j,l)

                   0    0.435634    8.951742   -2.706271
                                   -2.706271    3.493781
                   1    0.497942    2.431277

  2. Atomic kind: O                                     Number of atoms:       8

     Orbital basis set information for                     DZVP-MOLOPT-SR-GTH-q6

       Number of orbital shell sets:                                           1
       Number of orbital shells:                                               5
       Number of primitive Cartesian functions:                                5
       Number of Cartesian basis functions:                                   14
       Number of spherical basis functions:                                   13

       Normalised Cartesian orbitals:

                        Set   Shell   Orbital            Exponent    Coefficient

                          1       1    2s               10.389228       0.396646
                                                         3.849621       0.208811
                                                         1.388401      -0.301641
                                                         0.496955      -0.274061
                                                         0.162492      -0.033677

                          1       2    3s               10.389228       0.303673
                                                         3.849621       0.240943
                                                         1.388401      -0.313066
                                                         0.496955      -0.043055
                                                         0.162492       0.213991

                          1       3    3px              10.389228      -1.530415
                                                         3.849621      -1.371928
                                                         1.388401      -0.761951
                                                         0.496955      -0.253695
                                                         0.162492      -0.035541
                          1       3    3py              10.389228      -1.530415
                                                         3.849621      -1.371928
                                                         1.388401      -0.761951
                                                         0.496955      -0.253695
                                                         0.162492      -0.035541
                          1       3    3pz              10.389228      -1.530415
                                                         3.849621      -1.371928
                                                         1.388401      -0.761951
                                                         0.496955      -0.253695
                                                         0.162492      -0.035541

                          1       4    4px              10.389228      -0.565392
                                                         3.849621      -0.038231
                                                         1.388401      -0.382373
                                                         0.496955       0.179070
                                                         0.162492       0.122714
                          1       4    4py              10.389228      -0.565392
                                                         3.849621      -0.038231
                                                         1.388401      -0.382373
                                                         0.496955       0.179070
                                                         0.162492       0.122714
                          1       4    4pz              10.389228      -0.565392
                                                         3.849621      -0.038231
                                                         1.388401      -0.382373
                                                         0.496955       0.179070
                                                         0.162492       0.122714

                          1       5    4dx2             10.389228       1.867377
                                                         3.849621       0.670994
                                                         1.388401       1.353441
                                                         0.496955       0.273538
                                                         0.162492       0.006620
                          1       5    4dxy             10.389228       3.234392
                                                         3.849621       1.162195
                                                         1.388401       2.344229
                                                         0.496955       0.473781
                                                         0.162492       0.011466
                          1       5    4dxz             10.389228       3.234392
                                                         3.849621       1.162195
                                                         1.388401       2.344229
                                                         0.496955       0.473781
                                                         0.162492       0.011466
                          1       5    4dy2             10.389228       1.867377
                                                         3.849621       0.670994
                                                         1.388401       1.353441
                                                         0.496955       0.273538
                                                         0.162492       0.006620
                          1       5    4dyz             10.389228       3.234392
                                                         3.849621       1.162195
                                                         1.388401       2.344229
                                                         0.496955       0.473781
                                                         0.162492       0.011466
                          1       5    4dz2             10.389228       1.867377
                                                         3.849621       0.670994
                                                         1.388401       1.353441
                                                         0.496955       0.273538
                                                         0.162492       0.006620

     Potential information for                                        GTH-PBE-q6

       Description:                       Goedecker-Teter-Hutter pseudopotential
                                           Goedecker et al., PRB 54, 1703 (1996)
                                          Hartwigsen et al., PRB 58, 3641 (1998)
                                                      Krack, TCA 114, 145 (2005)

       Gaussian exponent of the core charge distribution:               8.360253
       Electronic configuration (s p d ...):                               2   4

       Parameters of the local part of the GTH pseudopotential:

                          rloc        C1          C2          C3          C4
                        0.244554  -16.667215    2.487311

       Parameters of the non-local part of the GTH pseudopotential:

                   l      r(l)      h(i,j,l)

                   0    0.220956   18.337458
                   1    0.211332

  3. Atomic kind: H                                     Number of atoms:       8

     Orbital basis set information for                     DZVP-MOLOPT-SR-GTH-q1

       Number of orbital shell sets:                                           1
       Number of orbital shells:                                               3
       Number of primitive Cartesian functions:                                5
       Number of Cartesian basis functions:                                    5
       Number of spherical basis functions:                                    5

       Normalised Cartesian orbitals:

                        Set   Shell   Orbital            Exponent    Coefficient

                          1       1    2s               10.068468      -0.133023
                                                         2.680223      -0.177618
                                                         0.791502      -0.258419
                                                         0.239116      -0.107525
                                                         0.082193      -0.014019

                          1       2    3s               10.068468       0.344673
                                                         2.680223       1.819821
                                                         0.791502      -0.999069
                                                         0.239116       0.017430
                                                         0.082193       0.082660

                          1       3    3px              10.068468       0.155326
                                                         2.680223       0.367157
                                                         0.791502       0.311480
                                                         0.239116       0.080105
                                                         0.082193       0.033440
                          1       3    3py              10.068468       0.155326
                                                         2.680223       0.367157
                                                         0.791502       0.311480
                                                         0.239116       0.080105
                                                         0.082193       0.033440
                          1       3    3pz              10.068468       0.155326
                                                         2.680223       0.367157
                                                         0.791502       0.311480
                                                         0.239116       0.080105
                                                         0.082193       0.033440

     Potential information for                                        GTH-PBE-q1

       Description:                       Goedecker-Teter-Hutter pseudopotential
                                           Goedecker et al., PRB 54, 1703 (1996)
                                          Hartwigsen et al., PRB 58, 3641 (1998)
                                                      Krack, TCA 114, 145 (2005)

       Gaussian exponent of the core charge distribution:              12.500000
       Electronic configuration (s p d ...):                                   1

       Parameters of the local part of the GTH pseudopotential:

                          rloc        C1          C2          C3          C4
                        0.200000   -4.178900    0.724463


 MOLECULE KIND INFORMATION


 All atoms are their own molecule, skipping detailed information


 TOTAL NUMBERS AND MAXIMUM NUMBERS

  Total number of            - Atomic kinds:                                   3
                             - Atoms:                                         18
                             - Shell sets:                                    18
                             - Shells:                                        74
                             - Primitive Cartesian functions:                 88
                             - Cartesian basis functions:                    180
                             - Spherical basis functions:                    170

  Maximum angular momentum of- Orbital basis functions:                        2
                             - Local part of the GTH pseudopotential:          2
                             - Non-local part of the GTH pseudopotential:      2


 MODULE QUICKSTEP:  ATOMIC COORDINATES IN angstrom

  Atom  Kind  Element       X           Y           Z          Z(eff)       Mass

       1     1 Si  14   10.579487   10.311667    8.416050      4.00      28.0855
       2     1 Si  14   10.193449    9.200974   11.252884      4.00      28.0855
       3     2 O    8   11.261716    7.963826   11.432833      6.00      15.9994
       4     2 O    8   10.729155   10.669173   11.833127      6.00      15.9994
       5     2 O    8   10.048059    9.340211    9.611600      6.00      15.9994
       6     2 O    8   11.254028   11.601058    9.223056      6.00      15.9994
       7     2 O    8    9.407579   10.929525    7.450304      6.00      15.9994
       8     2 O    8   11.617826    9.509759    7.420907      6.00      15.9994
       9     2 O    8    8.814960    8.836480   12.037681      6.00      15.9994
      10     3 H    1   11.144402   11.221970   11.138381      1.00       1.0079
      11     3 H    1   12.167312    8.834474    7.850495      1.00       1.0079
      12     3 H    1   11.487873   12.367627    8.676018      1.00       1.0079
      13     3 H    1    9.226722   10.419818    6.645967      1.00       1.0079
      14     3 H    1   11.239918    7.540787   12.305696      1.00       1.0079
      15     3 H    1    8.357340    9.628010   12.419771      1.00       1.0079
      16     2 O    8    8.287300   11.338210   13.069092      6.00      15.9994
      17     3 H    1    9.211087   11.437196   12.741292      1.00       1.0079
      18     3 H    1    7.777406   12.003720   12.583160      1.00       1.0079




 SCF PARAMETERS         Density guess:                                   RESTART
                        --------------------------------------------------------
                        max_scf:                                             100
                        max_scf_history:                                       0
                        max_diis:                                              4
                        --------------------------------------------------------
                        eps_scf:                                        1.00E-08
                        eps_scf_history:                                0.00E+00
                        eps_diis:                                       1.00E-01
                        eps_eigval:                                     1.00E-05
                        --------------------------------------------------------
                        level_shift [a.u.]:                                 0.00
                        --------------------------------------------------------
                        No outer SCF

 PW_GRID: Information for grid number                                          1
 PW_GRID: Grid distributed over                                   576 processors
 PW_GRID: Real space group dimensions                                   576    1
 PW_GRID: the grid is blocked:                                                NO
 PW_GRID: Cutoff [a.u.]                                                    800.0
 PW_GRID: spherical cutoff:                                                   NO
 PW_GRID:   Bounds   1           -243     242                Points:         486
 PW_GRID:   Bounds   2           -243     242                Points:         486
 PW_GRID:   Bounds   3           -243     242                Points:         486
 PW_GRID: Volume element (a.u.^3)  0.4703E-03     Volume (a.u.^3)     53986.6767
 PW_GRID: Grid span                                                    FULLSPACE
 PW_GRID:   Distribution                         Average         Max         Min
 PW_GRID:   G-Vectors                           199290.4      199746      199260
 PW_GRID:   G-Rays                                 410.1         411         410
 PW_GRID:   Real Space Points                   199290.4      236196           0

 PW_GRID: Information for grid number                                          2
 PW_GRID: Grid distributed over                                   576 processors
 PW_GRID: Real space group dimensions                                    24   24
 PW_GRID: the grid is blocked:                                                NO
 PW_GRID: Cutoff [a.u.]                                                    400.0
 PW_GRID: spherical cutoff:                                                   NO
 PW_GRID:   Bounds   1           -180     179                Points:         360
 PW_GRID:   Bounds   2           -180     179                Points:         360
 PW_GRID:   Bounds   3           -180     179                Points:         360
 PW_GRID: Volume element (a.u.^3)  0.1157E-02     Volume (a.u.^3)     53986.6767
 PW_GRID: Grid span                                                    FULLSPACE
 PW_GRID:   Distribution                         Average         Max         Min
 PW_GRID:   G-Vectors                            81000.0       81360       80640
 PW_GRID:   G-Rays                                 225.0         226         224
 PW_GRID:   Real Space Points                    81000.0       81000       81000

 PW_GRID: Information for grid number                                          3
 PW_GRID: Grid distributed over                                   576 processors
 PW_GRID: Real space group dimensions                                    24   24
 PW_GRID: the grid is blocked:                                                NO
 PW_GRID: Cutoff [a.u.]                                                    133.3
 PW_GRID: spherical cutoff:                                                   NO
 PW_GRID:   Bounds   1           -100      99                Points:         200
 PW_GRID:   Bounds   2           -100      99                Points:         200
 PW_GRID:   Bounds   3           -100      99                Points:         200
 PW_GRID: Volume element (a.u.^3)  0.6748E-02     Volume (a.u.^3)     53986.6767
 PW_GRID: Grid span                                                    FULLSPACE
 PW_GRID:   Distribution                         Average         Max         Min
 PW_GRID:   G-Vectors                            13888.9       15400       13600
 PW_GRID:   G-Rays                                  69.4          77          68
 PW_GRID:   Real Space Points                    13888.9       16200       12800

 PW_GRID: Information for grid number                                          4
 PW_GRID: Grid distributed over                                   576 processors
 PW_GRID: Real space group dimensions                                    24   24
 PW_GRID: the grid is blocked:                                                NO
 PW_GRID: Cutoff [a.u.]                                                     44.4
 PW_GRID: spherical cutoff:                                                   NO
 PW_GRID:   Bounds   1            -60      59                Points:         120
 PW_GRID:   Bounds   2            -60      59                Points:         120
 PW_GRID:   Bounds   3            -60      59                Points:         120
 PW_GRID: Volume element (a.u.^3)  0.3124E-01     Volume (a.u.^3)     53986.6767
 PW_GRID: Grid span                                                    FULLSPACE
 PW_GRID:   Distribution                         Average         Max         Min
 PW_GRID:   G-Vectors                             3000.0        3360        2400
 PW_GRID:   G-Rays                                  25.0          28          20
 PW_GRID:   Real Space Points                     3000.0        3000        3000

 PW_GRID: Information for grid number                                          5
 PW_GRID: Grid distributed over                                   576 processors
 PW_GRID: Real space group dimensions                                    24   24
 PW_GRID: the grid is blocked:                                                NO
 PW_GRID: Cutoff [a.u.]                                                     14.8
 PW_GRID: spherical cutoff:                                                   NO
 PW_GRID:   Bounds   1            -36      35                Points:          72
 PW_GRID:   Bounds   2            -36      35                Points:          72
 PW_GRID:   Bounds   3            -36      35                Points:          72
 PW_GRID: Volume element (a.u.^3)  0.1446         Volume (a.u.^3)     53986.6767
 PW_GRID: Grid span                                                    FULLSPACE
 PW_GRID:   Distribution                         Average         Max         Min
 PW_GRID:   G-Vectors                              648.0         792         576
 PW_GRID:   G-Rays                                   9.0          11           8
 PW_GRID:   Real Space Points                      648.0         648         648

 PW_GRID: Information for grid number                                          6
 PW_GRID: Grid distributed over                                   576 processors
 PW_GRID: Real space group dimensions                                    24   24
 PW_GRID: the grid is blocked:                                                NO
 PW_GRID: Cutoff [a.u.]                                                      4.9
 PW_GRID: spherical cutoff:                                                   NO
 PW_GRID:   Bounds   1            -20      19                Points:          40
 PW_GRID:   Bounds   2            -20      19                Points:          40
 PW_GRID:   Bounds   3            -20      19                Points:          40
 PW_GRID: Volume element (a.u.^3)  0.8435         Volume (a.u.^3)     53986.6767
 PW_GRID: Grid span                                                    FULLSPACE
 PW_GRID:   Distribution                         Average         Max         Min
 PW_GRID:   G-Vectors                              111.1         200          80
 PW_GRID:   G-Rays                                   2.8           5           2
 PW_GRID:   Real Space Points                      111.1         160          40

 PW_GRID: Information for grid number                                          7
 PW_GRID: Grid distributed over                                   576 processors
 PW_GRID: Real space group dimensions                                    24   24
 PW_GRID: the grid is blocked:                                                NO
 PW_GRID: Cutoff [a.u.]                                                      1.6
 PW_GRID: spherical cutoff:                                                   NO
 PW_GRID:   Bounds   1            -12      11                Points:          24
 PW_GRID:   Bounds   2            -12      11                Points:          24
 PW_GRID:   Bounds   3            -12      11                Points:          24
 PW_GRID: Volume element (a.u.^3)   3.905         Volume (a.u.^3)     53986.6767
 PW_GRID: Grid span                                                    FULLSPACE
 PW_GRID:   Distribution                         Average         Max         Min
 PW_GRID:   G-Vectors                               24.0          48           0
 PW_GRID:   G-Rays                                   1.0           2           0
 PW_GRID:   Real Space Points                       24.0          24          24

 RS_GRID: Information for grid number                                          2
 RS_GRID:   Bounds   1           -180     179                Points:         360
 RS_GRID:   Bounds   2           -180     179                Points:         360
 RS_GRID:   Bounds   3           -180     179                Points:         360
 RS_GRID: Real space distribution over                                  8 groups
 RS_GRID: Real space distribution along direction                              1
 RS_GRID: Border size                                                         39
 RS_GRID: Real space distribution over                                  8 groups
 RS_GRID: Real space distribution along direction                              2
 RS_GRID: Border size                                                         39
 RS_GRID: Real space distribution over                                  9 groups
 RS_GRID: Real space distribution along direction                              3
 RS_GRID: Border size                                                         39
 RS_GRID:   Distribution                         Average         Max         Min
 RS_GRID:   Planes                                 123.0         123         123
 RS_GRID:   Distribution                         Average         Max         Min
 RS_GRID:   Planes                                 123.0         123         123
 RS_GRID:   Distribution                         Average         Max         Min
 RS_GRID:   Planes                                 118.0         118         118

 RS_GRID: Information for grid number                                          3
 RS_GRID:   Bounds   1           -100      99                Points:         200
 RS_GRID:   Bounds   2           -100      99                Points:         200
 RS_GRID:   Bounds   3           -100      99                Points:         200
 RS_GRID: Real space distribution over                                  8 groups
 RS_GRID: Real space distribution along direction                              1
 RS_GRID: Border size                                                         24
 RS_GRID: Real space distribution over                                  8 groups
 RS_GRID: Real space distribution along direction                              2
 RS_GRID: Border size                                                         24
 RS_GRID: Real space distribution over                                  9 groups
 RS_GRID: Real space distribution along direction                              3
 RS_GRID: Border size                                                         24
 RS_GRID:   Distribution                         Average         Max         Min
 RS_GRID:   Planes                                  73.0          73          73
 RS_GRID:   Distribution                         Average         Max         Min
 RS_GRID:   Planes                                  73.0          73          73
 RS_GRID:   Distribution                         Average         Max         Min
 RS_GRID:   Planes                                  70.2          71          70

 RS_GRID: Information for grid number                                          4
 RS_GRID:   Bounds   1            -60      59                Points:         120
 RS_GRID:   Bounds   2            -60      59                Points:         120
 RS_GRID:   Bounds   3            -60      59                Points:         120
 RS_GRID: Real space distribution over                                  8 groups
 RS_GRID: Real space distribution along direction                              1
 RS_GRID: Border size                                                         27
 RS_GRID: Real space distribution over                                  8 groups
 RS_GRID: Real space distribution along direction                              2
 RS_GRID: Border size                                                         27
 RS_GRID: Real space distribution over                                  9 groups
 RS_GRID: Real space distribution along direction                              3
 RS_GRID: Border size                                                         27
 RS_GRID:   Distribution                         Average         Max         Min
 RS_GRID:   Planes                                  69.0          69          69
 RS_GRID:   Distribution                         Average         Max         Min
 RS_GRID:   Planes                                  69.0          69          69
 RS_GRID:   Distribution                         Average         Max         Min
 RS_GRID:   Planes                                  67.3          68          67

 RS_GRID: Information for grid number                                          5
 RS_GRID:   Bounds   1            -36      35                Points:          72
 RS_GRID:   Bounds   2            -36      35                Points:          72
 RS_GRID:   Bounds   3            -36      35                Points:          72
 RS_GRID: Real space distribution over                                  8 groups
 RS_GRID: Real space distribution along direction                              1
 RS_GRID: Border size                                                         28
 RS_GRID: Real space distribution over                                  8 groups
 RS_GRID: Real space distribution along direction                              2
 RS_GRID: Border size                                                         28
 RS_GRID: Real space distribution over                                  9 groups
 RS_GRID: Real space distribution along direction                              3
 RS_GRID: Border size                                                         28
 RS_GRID:   Distribution                         Average         Max         Min
 RS_GRID:   Planes                                  65.0          65          65
 RS_GRID:   Distribution                         Average         Max         Min
 RS_GRID:   Planes                                  65.0          65          65
 RS_GRID:   Distribution                         Average         Max         Min
 RS_GRID:   Planes                                  64.0          64          64

 RS_GRID: Information for grid number                                          6
 RS_GRID:   Bounds   1            -20      19                Points:          40
 RS_GRID:   Bounds   2            -20      19                Points:          40
 RS_GRID:   Bounds   3            -20      19                Points:          40
 RS_GRID: Real space distribution over                                  8 groups
 RS_GRID: Real space distribution along direction                              1
 RS_GRID: Border size                                                         25
 RS_GRID: Real space distribution over                                  8 groups
 RS_GRID: Real space distribution along direction                              2
 RS_GRID: Border size                                                         25
 RS_GRID: Real space distribution over                                  9 groups
 RS_GRID: Real space distribution along direction                              3
 RS_GRID: Border size                                                         25
 RS_GRID:   Distribution                         Average         Max         Min
 RS_GRID:   Planes                                  55.0          55          55
 RS_GRID:   Distribution                         Average         Max         Min
 RS_GRID:   Planes                                  55.0          55          55
 RS_GRID:   Distribution                         Average         Max         Min
 RS_GRID:   Planes                                  54.4          55          54

 RS_GRID: Information for grid number                                          7
 RS_GRID:   Bounds   1            -12      11                Points:          24
 RS_GRID:   Bounds   2            -12      11                Points:          24
 RS_GRID:   Bounds   3            -12      11                Points:          24
 RS_GRID: Real space distribution over                                  8 groups
 RS_GRID: Real space distribution along direction                              1
 RS_GRID: Border size                                                         16
 RS_GRID: Real space distribution over                                  8 groups
 RS_GRID: Real space distribution along direction                              2
 RS_GRID: Border size                                                         16
 RS_GRID: Real space distribution over                                  9 groups
 RS_GRID: Real space distribution along direction                              3
 RS_GRID: Border size                                                         16
 RS_GRID:   Distribution                         Average         Max         Min
 RS_GRID:   Planes                                  35.0          35          35
 RS_GRID:   Distribution                         Average         Max         Min
 RS_GRID:   Planes                                  35.0          35          35
 RS_GRID:   Distribution                         Average         Max         Min
 RS_GRID:   Planes                                  34.7          35          34

 DISTRIBUTION OF THE PARTICLES (ROWS)
              Process row      Number of particles         Number of matrix rows
                        0                        1                            -1
                        1                        1                            -1
                        2                        1                            -1
                        3                        1                            -1
                        4                        1                            -1
                        5                        1                            -1
                        6                        0                            -1
                        7                        1                            -1
                        8                        1                            -1
                        9                        1                            -1
                       10                        1                            -1
                       11                        0                            -1
                       12                        0                            -1
                       13                        0                            -1
                       14                        0                            -1
                       15                        1                            -1
                       16                        1                            -1
                       17                        1                            -1
                       18                        1                            -1
                       19                        1                            -1
                       20                        1                            -1
                       21                        1                            -1
                       22                        1                            -1
                       23                        0                            -1
                      Sum                       18                            -1

 DISTRIBUTION OF THE PARTICLES (COLUMNS)
              Process col      Number of particles      Number of matrix columns
                        0                        1                            -1
                        1                        1                            -1
                        2                        1                            -1
                        3                        1                            -1
                        4                        1                            -1
                        5                        1                            -1
                        6                        0                            -1
                        7                        1                            -1
                        8                        1                            -1
                        9                        1                            -1
                       10                        1                            -1
                       11                        0                            -1
                       12                        0                            -1
                       13                        0                            -1
                       14                        0                            -1
                       15                        1                            -1
                       16                        1                            -1
                       17                        1                            -1
                       18                        1                            -1
                       19                        1                            -1
                       20                        1                            -1
                       21                        1                            -1
                       22                        1                            -1
                       23                        0                            -1
                      Sum                       18                            -1

 *******************************************************************************
 *******************************************************************************
 **                                                                           **
 **  #  #   #    #                  #     #                      ##           **
 **  #  #        ###   # ##   ###  ####         ##   # #    ###   #           **
 **  #  #   #    #  #  ##    #  #   #     #    #  #  ## #  #  #   #           **
 **   ##    #    #  #  #     # ##   #     #    #  #  #  #  # ##   #           **
 **   ##    #    ###   #      # #    ##   #     ##   #  #   # #  ###          **
 **                                                                           **
 **   ##               ##                 #                                   **
 **  #  #  # #    ###   #    #  #   ###         ###                           **
 **  #  #  ## #  #  #   #    #  #  ##     #    ##                             **
 **  ####  #  #  # ##   #     ###    ##   #      ##  N. Replicas:          18 **
 **  #  #  #  #   # #  ###      #  ###    #    ###   N. Procs/Rep:         32 **
 **                           ##                                              **
 **                                       T. Laino  and F. Schiffmann         **
 **                                       2008 - 2012                         **
 *******************************************************************************
 *******************************************************************************

 REPLICA| layout of the replica grid, number of groups                        18
 REPLICA| layout of the replica grid, size of each group                      32
 REPLICA| MPI process to grid (group,rank) correspondence:
  (   0 :    0,   0)  (   1 :    0,   1)  (   2 :    0,   2)  (   3 :    0,   3)
  (   4 :    0,   4)  (   5 :    0,   5)  (   6 :    0,   6)  (   7 :    0,   7)
  (   8 :    0,   8)  (   9 :    0,   9)  (  10 :    0,  10)  (  11 :    0,  11)
  (  12 :    0,  12)  (  13 :    0,  13)  (  14 :    0,  14)  (  15 :    0,  15)
  (  16 :    0,  16)  (  17 :    0,  17)  (  18 :    0,  18)  (  19 :    0,  19)
  (  20 :    0,  20)  (  21 :    0,  21)  (  22 :    0,  22)  (  23 :    0,  23)
  (  24 :    0,  24)  (  25 :    0,  25)  (  26 :    0,  26)  (  27 :    0,  27)
  (  28 :    0,  28)  (  29 :    0,  29)  (  30 :    0,  30)  (  31 :    0,  31)
  (  32 :    1,   0)  (  33 :    1,   1)  (  34 :    1,   2)  (  35 :    1,   3)
  (  36 :    1,   4)  (  37 :    1,   5)  (  38 :    1,   6)  (  39 :    1,   7)
  (  40 :    1,   8)  (  41 :    1,   9)  (  42 :    1,  10)  (  43 :    1,  11)
  (  44 :    1,  12)  (  45 :    1,  13)  (  46 :    1,  14)  (  47 :    1,  15)
  (  48 :    1,  16)  (  49 :    1,  17)  (  50 :    1,  18)  (  51 :    1,  19)
  (  52 :    1,  20)  (  53 :    1,  21)  (  54 :    1,  22)  (  55 :    1,  23)
  (  56 :    1,  24)  (  57 :    1,  25)  (  58 :    1,  26)  (  59 :    1,  27)
  (  60 :    1,  28)  (  61 :    1,  29)  (  62 :    1,  30)  (  63 :    1,  31)
  (  64 :    2,   0)  (  65 :    2,   1)  (  66 :    2,   2)  (  67 :    2,   3)
  (  68 :    2,   4)  (  69 :    2,   5)  (  70 :    2,   6)  (  71 :    2,   7)
  (  72 :    2,   8)  (  73 :    2,   9)  (  74 :    2,  10)  (  75 :    2,  11)
  (  76 :    2,  12)  (  77 :    2,  13)  (  78 :    2,  14)  (  79 :    2,  15)
  (  80 :    2,  16)  (  81 :    2,  17)  (  82 :    2,  18)  (  83 :    2,  19)
  (  84 :    2,  20)  (  85 :    2,  21)  (  86 :    2,  22)  (  87 :    2,  23)
  (  88 :    2,  24)  (  89 :    2,  25)  (  90 :    2,  26)  (  91 :    2,  27)
  (  92 :    2,  28)  (  93 :    2,  29)  (  94 :    2,  30)  (  95 :    2,  31)
  (  96 :    3,   0)  (  97 :    3,   1)  (  98 :    3,   2)  (  99 :    3,   3)
  ( 100 :    3,   4)  ( 101 :    3,   5)  ( 102 :    3,   6)  ( 103 :    3,   7)
  ( 104 :    3,   8)  ( 105 :    3,   9)  ( 106 :    3,  10)  ( 107 :    3,  11)
  ( 108 :    3,  12)  ( 109 :    3,  13)  ( 110 :    3,  14)  ( 111 :    3,  15)
  ( 112 :    3,  16)  ( 113 :    3,  17)  ( 114 :    3,  18)  ( 115 :    3,  19)
  ( 116 :    3,  20)  ( 117 :    3,  21)  ( 118 :    3,  22)  ( 119 :    3,  23)
  ( 120 :    3,  24)  ( 121 :    3,  25)  ( 122 :    3,  26)  ( 123 :    3,  27)
  ( 124 :    3,  28)  ( 125 :    3,  29)  ( 126 :    3,  30)  ( 127 :    3,  31)
  ( 128 :    4,   0)  ( 129 :    4,   1)  ( 130 :    4,   2)  ( 131 :    4,   3)
  ( 132 :    4,   4)  ( 133 :    4,   5)  ( 134 :    4,   6)  ( 135 :    4,   7)
  ( 136 :    4,   8)  ( 137 :    4,   9)  ( 138 :    4,  10)  ( 139 :    4,  11)
  ( 140 :    4,  12)  ( 141 :    4,  13)  ( 142 :    4,  14)  ( 143 :    4,  15)
  ( 144 :    4,  16)  ( 145 :    4,  17)  ( 146 :    4,  18)  ( 147 :    4,  19)
  ( 148 :    4,  20)  ( 149 :    4,  21)  ( 150 :    4,  22)  ( 151 :    4,  23)
  ( 152 :    4,  24)  ( 153 :    4,  25)  ( 154 :    4,  26)  ( 155 :    4,  27)
  ( 156 :    4,  28)  ( 157 :    4,  29)  ( 158 :    4,  30)  ( 159 :    4,  31)
  ( 160 :    5,   0)  ( 161 :    5,   1)  ( 162 :    5,   2)  ( 163 :    5,   3)
  ( 164 :    5,   4)  ( 165 :    5,   5)  ( 166 :    5,   6)  ( 167 :    5,   7)
  ( 168 :    5,   8)  ( 169 :    5,   9)  ( 170 :    5,  10)  ( 171 :    5,  11)
  ( 172 :    5,  12)  ( 173 :    5,  13)  ( 174 :    5,  14)  ( 175 :    5,  15)
  ( 176 :    5,  16)  ( 177 :    5,  17)  ( 178 :    5,  18)  ( 179 :    5,  19)
  ( 180 :    5,  20)  ( 181 :    5,  21)  ( 182 :    5,  22)  ( 183 :    5,  23)
  ( 184 :    5,  24)  ( 185 :    5,  25)  ( 186 :    5,  26)  ( 187 :    5,  27)
  ( 188 :    5,  28)  ( 189 :    5,  29)  ( 190 :    5,  30)  ( 191 :    5,  31)
  ( 192 :    6,   0)  ( 193 :    6,   1)  ( 194 :    6,   2)  ( 195 :    6,   3)
  ( 196 :    6,   4)  ( 197 :    6,   5)  ( 198 :    6,   6)  ( 199 :    6,   7)
  ( 200 :    6,   8)  ( 201 :    6,   9)  ( 202 :    6,  10)  ( 203 :    6,  11)
  ( 204 :    6,  12)  ( 205 :    6,  13)  ( 206 :    6,  14)  ( 207 :    6,  15)
  ( 208 :    6,  16)  ( 209 :    6,  17)  ( 210 :    6,  18)  ( 211 :    6,  19)
  ( 212 :    6,  20)  ( 213 :    6,  21)  ( 214 :    6,  22)  ( 215 :    6,  23)
  ( 216 :    6,  24)  ( 217 :    6,  25)  ( 218 :    6,  26)  ( 219 :    6,  27)
  ( 220 :    6,  28)  ( 221 :    6,  29)  ( 222 :    6,  30)  ( 223 :    6,  31)
  ( 224 :    7,   0)  ( 225 :    7,   1)  ( 226 :    7,   2)  ( 227 :    7,   3)
  ( 228 :    7,   4)  ( 229 :    7,   5)  ( 230 :    7,   6)  ( 231 :    7,   7)
  ( 232 :    7,   8)  ( 233 :    7,   9)  ( 234 :    7,  10)  ( 235 :    7,  11)
  ( 236 :    7,  12)  ( 237 :    7,  13)  ( 238 :    7,  14)  ( 239 :    7,  15)
  ( 240 :    7,  16)  ( 241 :    7,  17)  ( 242 :    7,  18)  ( 243 :    7,  19)
  ( 244 :    7,  20)  ( 245 :    7,  21)  ( 246 :    7,  22)  ( 247 :    7,  23)
  ( 248 :    7,  24)  ( 249 :    7,  25)  ( 250 :    7,  26)  ( 251 :    7,  27)
  ( 252 :    7,  28)  ( 253 :    7,  29)  ( 254 :    7,  30)  ( 255 :    7,  31)
  ( 256 :    8,   0)  ( 257 :    8,   1)  ( 258 :    8,   2)  ( 259 :    8,   3)
  ( 260 :    8,   4)  ( 261 :    8,   5)  ( 262 :    8,   6)  ( 263 :    8,   7)
  ( 264 :    8,   8)  ( 265 :    8,   9)  ( 266 :    8,  10)  ( 267 :    8,  11)
  ( 268 :    8,  12)  ( 269 :    8,  13)  ( 270 :    8,  14)  ( 271 :    8,  15)
  ( 272 :    8,  16)  ( 273 :    8,  17)  ( 274 :    8,  18)  ( 275 :    8,  19)
  ( 276 :    8,  20)  ( 277 :    8,  21)  ( 278 :    8,  22)  ( 279 :    8,  23)
  ( 280 :    8,  24)  ( 281 :    8,  25)  ( 282 :    8,  26)  ( 283 :    8,  27)
  ( 284 :    8,  28)  ( 285 :    8,  29)  ( 286 :    8,  30)  ( 287 :    8,  31)
  ( 288 :    9,   0)  ( 289 :    9,   1)  ( 290 :    9,   2)  ( 291 :    9,   3)
  ( 292 :    9,   4)  ( 293 :    9,   5)  ( 294 :    9,   6)  ( 295 :    9,   7)
  ( 296 :    9,   8)  ( 297 :    9,   9)  ( 298 :    9,  10)  ( 299 :    9,  11)
  ( 300 :    9,  12)  ( 301 :    9,  13)  ( 302 :    9,  14)  ( 303 :    9,  15)
  ( 304 :    9,  16)  ( 305 :    9,  17)  ( 306 :    9,  18)  ( 307 :    9,  19)
  ( 308 :    9,  20)  ( 309 :    9,  21)  ( 310 :    9,  22)  ( 311 :    9,  23)
  ( 312 :    9,  24)  ( 313 :    9,  25)  ( 314 :    9,  26)  ( 315 :    9,  27)
  ( 316 :    9,  28)  ( 317 :    9,  29)  ( 318 :    9,  30)  ( 319 :    9,  31)
  ( 320 :   10,   0)  ( 321 :   10,   1)  ( 322 :   10,   2)  ( 323 :   10,   3)
  ( 324 :   10,   4)  ( 325 :   10,   5)  ( 326 :   10,   6)  ( 327 :   10,   7)
  ( 328 :   10,   8)  ( 329 :   10,   9)  ( 330 :   10,  10)  ( 331 :   10,  11)
  ( 332 :   10,  12)  ( 333 :   10,  13)  ( 334 :   10,  14)  ( 335 :   10,  15)
  ( 336 :   10,  16)  ( 337 :   10,  17)  ( 338 :   10,  18)  ( 339 :   10,  19)
  ( 340 :   10,  20)  ( 341 :   10,  21)  ( 342 :   10,  22)  ( 343 :   10,  23)
  ( 344 :   10,  24)  ( 345 :   10,  25)  ( 346 :   10,  26)  ( 347 :   10,  27)
  ( 348 :   10,  28)  ( 349 :   10,  29)  ( 350 :   10,  30)  ( 351 :   10,  31)
  ( 352 :   11,   0)  ( 353 :   11,   1)  ( 354 :   11,   2)  ( 355 :   11,   3)
  ( 356 :   11,   4)  ( 357 :   11,   5)  ( 358 :   11,   6)  ( 359 :   11,   7)
  ( 360 :   11,   8)  ( 361 :   11,   9)  ( 362 :   11,  10)  ( 363 :   11,  11)
  ( 364 :   11,  12)  ( 365 :   11,  13)  ( 366 :   11,  14)  ( 367 :   11,  15)
  ( 368 :   11,  16)  ( 369 :   11,  17)  ( 370 :   11,  18)  ( 371 :   11,  19)
  ( 372 :   11,  20)  ( 373 :   11,  21)  ( 374 :   11,  22)  ( 375 :   11,  23)
  ( 376 :   11,  24)  ( 377 :   11,  25)  ( 378 :   11,  26)  ( 379 :   11,  27)
  ( 380 :   11,  28)  ( 381 :   11,  29)  ( 382 :   11,  30)  ( 383 :   11,  31)
  ( 384 :   12,   0)  ( 385 :   12,   1)  ( 386 :   12,   2)  ( 387 :   12,   3)
  ( 388 :   12,   4)  ( 389 :   12,   5)  ( 390 :   12,   6)  ( 391 :   12,   7)
  ( 392 :   12,   8)  ( 393 :   12,   9)  ( 394 :   12,  10)  ( 395 :   12,  11)
  ( 396 :   12,  12)  ( 397 :   12,  13)  ( 398 :   12,  14)  ( 399 :   12,  15)
  ( 400 :   12,  16)  ( 401 :   12,  17)  ( 402 :   12,  18)  ( 403 :   12,  19)
  ( 404 :   12,  20)  ( 405 :   12,  21)  ( 406 :   12,  22)  ( 407 :   12,  23)
  ( 408 :   12,  24)  ( 409 :   12,  25)  ( 410 :   12,  26)  ( 411 :   12,  27)
  ( 412 :   12,  28)  ( 413 :   12,  29)  ( 414 :   12,  30)  ( 415 :   12,  31)
  ( 416 :   13,   0)  ( 417 :   13,   1)  ( 418 :   13,   2)  ( 419 :   13,   3)
  ( 420 :   13,   4)  ( 421 :   13,   5)  ( 422 :   13,   6)  ( 423 :   13,   7)
  ( 424 :   13,   8)  ( 425 :   13,   9)  ( 426 :   13,  10)  ( 427 :   13,  11)
  ( 428 :   13,  12)  ( 429 :   13,  13)  ( 430 :   13,  14)  ( 431 :   13,  15)
  ( 432 :   13,  16)  ( 433 :   13,  17)  ( 434 :   13,  18)  ( 435 :   13,  19)
  ( 436 :   13,  20)  ( 437 :   13,  21)  ( 438 :   13,  22)  ( 439 :   13,  23)
  ( 440 :   13,  24)  ( 441 :   13,  25)  ( 442 :   13,  26)  ( 443 :   13,  27)
  ( 444 :   13,  28)  ( 445 :   13,  29)  ( 446 :   13,  30)  ( 447 :   13,  31)
  ( 448 :   14,   0)  ( 449 :   14,   1)  ( 450 :   14,   2)  ( 451 :   14,   3)
  ( 452 :   14,   4)  ( 453 :   14,   5)  ( 454 :   14,   6)  ( 455 :   14,   7)
  ( 456 :   14,   8)  ( 457 :   14,   9)  ( 458 :   14,  10)  ( 459 :   14,  11)
  ( 460 :   14,  12)  ( 461 :   14,  13)  ( 462 :   14,  14)  ( 463 :   14,  15)
  ( 464 :   14,  16)  ( 465 :   14,  17)  ( 466 :   14,  18)  ( 467 :   14,  19)
  ( 468 :   14,  20)  ( 469 :   14,  21)  ( 470 :   14,  22)  ( 471 :   14,  23)
  ( 472 :   14,  24)  ( 473 :   14,  25)  ( 474 :   14,  26)  ( 475 :   14,  27)
  ( 476 :   14,  28)  ( 477 :   14,  29)  ( 478 :   14,  30)  ( 479 :   14,  31)
  ( 480 :   15,   0)  ( 481 :   15,   1)  ( 482 :   15,   2)  ( 483 :   15,   3)
  ( 484 :   15,   4)  ( 485 :   15,   5)  ( 486 :   15,   6)  ( 487 :   15,   7)
  ( 488 :   15,   8)  ( 489 :   15,   9)  ( 490 :   15,  10)  ( 491 :   15,  11)
  ( 492 :   15,  12)  ( 493 :   15,  13)  ( 494 :   15,  14)  ( 495 :   15,  15)
  ( 496 :   15,  16)  ( 497 :   15,  17)  ( 498 :   15,  18)  ( 499 :   15,  19)
  ( 500 :   15,  20)  ( 501 :   15,  21)  ( 502 :   15,  22)  ( 503 :   15,  23)
  ( 504 :   15,  24)  ( 505 :   15,  25)  ( 506 :   15,  26)  ( 507 :   15,  27)
  ( 508 :   15,  28)  ( 509 :   15,  29)  ( 510 :   15,  30)  ( 511 :   15,  31)
  ( 512 :   16,   0)  ( 513 :   16,   1)  ( 514 :   16,   2)  ( 515 :   16,   3)
  ( 516 :   16,   4)  ( 517 :   16,   5)  ( 518 :   16,   6)  ( 519 :   16,   7)
  ( 520 :   16,   8)  ( 521 :   16,   9)  ( 522 :   16,  10)  ( 523 :   16,  11)
  ( 524 :   16,  12)  ( 525 :   16,  13)  ( 526 :   16,  14)  ( 527 :   16,  15)
  ( 528 :   16,  16)  ( 529 :   16,  17)  ( 530 :   16,  18)  ( 531 :   16,  19)
  ( 532 :   16,  20)  ( 533 :   16,  21)  ( 534 :   16,  22)  ( 535 :   16,  23)
  ( 536 :   16,  24)  ( 537 :   16,  25)  ( 538 :   16,  26)  ( 539 :   16,  27)
  ( 540 :   16,  28)  ( 541 :   16,  29)  ( 542 :   16,  30)  ( 543 :   16,  31)
  ( 544 :   17,   0)  ( 545 :   17,   1)  ( 546 :   17,   2)  ( 547 :   17,   3)
  ( 548 :   17,   4)  ( 549 :   17,   5)  ( 550 :   17,   6)  ( 551 :   17,   7)
  ( 552 :   17,   8)  ( 553 :   17,   9)  ( 554 :   17,  10)  ( 555 :   17,  11)
  ( 556 :   17,  12)  ( 557 :   17,  13)  ( 558 :   17,  14)  ( 559 :   17,  15)
  ( 560 :   17,  16)  ( 561 :   17,  17)  ( 562 :   17,  18)  ( 563 :   17,  19)
  ( 564 :   17,  20)  ( 565 :   17,  21)  ( 566 :   17,  22)  ( 567 :   17,  23)
  ( 568 :   17,  24)  ( 569 :   17,  25)  ( 570 :   17,  26)  ( 571 :   17,  27)
  ( 572 :   17,  28)  ( 573 :   17,  29)  ( 574 :   17,  30)  ( 575 :   17,  31)

 VIB| Vibrational Analysis Info
 VIB| REPLICA Nr.    1- Energy and Forces for particle:    1  coordinate: X + DX
 VIB|                                     Total Energy:           -141.201194542
 VIB|    ATOM                            X                Y                Z
 VIB|      Si                     -0.004889251      0.000440052      0.000619748           
 VIB|      Si                     -0.000300581      0.000200808     -0.000212658           
 VIB|      O                       0.000539934      0.000019145      0.000671556           
 VIB|      O                      -0.000054700     -0.000707054      0.000671906           
 VIB|      O                       0.000152267     -0.000167806     -0.001540660           
 VIB|      O                       0.001666814      0.000760560      0.000022247           
 VIB|      O                       0.001557222      0.000063649      0.001316470           
 VIB|      O                       0.001207326     -0.000882096      0.000241327           
 VIB|      O                       0.000624384     -0.000240845     -0.000762044           
 VIB|      H                      -0.000018526      0.000585216     -0.000261497           
 VIB|      H                       0.000260729     -0.000407355     -0.000337626           
 VIB|      H                       0.000472180      0.000188882      0.000162478           
 VIB|      H                      -0.000696323     -0.000609312     -0.000495449           
 VIB|      H                       0.000412278     -0.000149652     -0.000278217           
 VIB|      H                      -0.000123430      0.000123465      0.000018370           
 VIB|      O                       0.000829696     -0.000163442      0.000295397           
 VIB|      H                      -0.000349165     -0.000021617      0.000287093           
 VIB|      H                      -0.001209007      0.000481028     -0.000396995           
 VIB| REPLICA Nr.    2- Energy and Forces for particle:    1  coordinate: Y + DY
 VIB|                                     Total Energy:           -141.201200213
 VIB|    ATOM                            X                Y                Z
 VIB|      Si                     -0.000334831     -0.004525896      0.000888583           
 VIB|      Si                     -0.000268541      0.000146906     -0.000442688           
 VIB|      O                       0.000524110      0.000034839      0.000693837           
 VIB|      O                      -0.000045104     -0.000597316      0.000690365           
 VIB|      O                      -0.000010079      0.000515447     -0.001934079           
 VIB|      O                       0.001637651      0.001721158      0.000211113           
 VIB|      O                      -0.000590494      0.001281383     -0.000307931           
 VIB|      O                      -0.000809403      0.000854510      0.001434314           
 VIB|      O                       0.000578248     -0.000221841     -0.000698954           
 VIB|      H                      -0.000009388      0.000525595     -0.000186128           
 VIB|      H                      -0.000014679     -0.000201137     -0.000046367           
 VIB|      H                       0.000554043      0.000313087      0.000256253           
 VIB|      H                      -0.000696443     -0.000580120     -0.000460854           
 VIB|      H                       0.000405653     -0.000148287     -0.000284657           
 VIB|      H                      -0.000111725      0.000093643      0.000016138           
 VIB|      O                       0.000818857     -0.000144799      0.000289164           
 VIB|      H                      -0.000336787     -0.000031949      0.000289118           
 VIB|      H                      -0.001209348      0.000481019     -0.000386257           
 VIB| REPLICA Nr.    3- Energy and Forces for particle:    1  coordinate: Z + DZ
 VIB|                                     Total Energy:           -141.201202956
 VIB|    ATOM                            X                Y                Z
 VIB|      Si                     -0.000763752      0.000313841     -0.004580580           
 VIB|      Si                     -0.000262878      0.000013015      0.000494898           
 VIB|      O                       0.000453184      0.000130501      0.000552067           
 VIB|      O                      -0.000127872     -0.000824065      0.000540844           
 VIB|      O                      -0.000983748     -0.001609057      0.000582077           
 VIB|      O                       0.001427467      0.000905499      0.000620600           
 VIB|      O                       0.000975193      0.000275158      0.001463583           
 VIB|      O                      -0.000897183      0.000597971      0.002096403           
 VIB|      O                       0.000665983     -0.000224617     -0.000856549           
 VIB|      H                       0.000052947      0.000665339     -0.000285859           
 VIB|      H                       0.000187370     -0.000358004     -0.000230666           
 VIB|      H                       0.000392268      0.000001649      0.000063471           
 VIB|      H                      -0.000565134     -0.000668686     -0.000392002           
 VIB|      H                       0.000405241     -0.000149290     -0.000277896           
 VIB|      H                      -0.000143075      0.000148718      0.000042960           
 VIB|      O                       0.000849820     -0.000191328      0.000267444           
 VIB|      H                      -0.000368259     -0.000003525      0.000311023           
 VIB|      H                      -0.001216105      0.000490608     -0.000390544           
 VIB| REPLICA Nr.    4- Energy and Forces for particle:    2  coordinate: X + DX
 VIB|                                     Total Energy:           -141.201196821
 VIB|    ATOM                            X                Y                Z
 VIB|      Si                     -0.000715550      0.000083379      0.000693849           
 VIB|      Si                     -0.004842853      0.000433148      0.000654151           
 VIB|      O                       0.001769576     -0.001124468      0.000860029           
 VIB|      O                       0.000501180     -0.000263079      0.000728380           
 VIB|      O                      -0.000081757     -0.000600105     -0.000856478           
 VIB|      O                       0.001053984      0.000125318     -0.000247251           
 VIB|      O                       0.000074819      0.000578957      0.000236969           
 VIB|      O                      -0.000027738     -0.000083817      0.000908433           
 VIB|      O                       0.002728811      0.000066362     -0.001798729           
 VIB|      H                       0.000069938      0.000766512     -0.000317626           
 VIB|      H                       0.000118824     -0.000300250     -0.000214793           
 VIB|      H                       0.000450390      0.000123866      0.000126465           
 VIB|      H                      -0.000778021     -0.000548961     -0.000549107           
 VIB|      H                       0.000432860     -0.000180312     -0.000301198           
 VIB|      H                       0.000111000      0.000061575     -0.000133172           
 VIB|      O                       0.000874103     -0.000058620      0.000313098           
 VIB|      H                      -0.000458402     -0.000046865      0.000310705           
 VIB|      H                      -0.001199858      0.000481047     -0.000392278           
 VIB| REPLICA Nr.    5- Energy and Forces for particle:    2  coordinate: Y + DY
 VIB|                                     Total Energy:           -141.201200367
 VIB|    ATOM                            X                Y                Z
 VIB|      Si                     -0.000654444      0.000057531      0.000529481           
 VIB|      Si                     -0.000058854     -0.004584481      0.000247684           
 VIB|      O                      -0.000512660      0.001676990      0.000268091           
 VIB|      O                       0.000498611      0.001049502      0.001057897           
 VIB|      O                      -0.000416274     -0.000238405     -0.001171139           
 VIB|      O                       0.001031619      0.000128032     -0.000188208           
 VIB|      O                       0.000071606      0.000598428      0.000243731           
 VIB|      O                      -0.000094798     -0.000052683      0.000965656           
 VIB|      O                       0.001042767      0.000368064     -0.001049812           
 VIB|      H                       0.000121011      0.000850045     -0.000330223           
 VIB|      H                       0.000131739     -0.000320682     -0.000190135           
 VIB|      H                       0.000453730      0.000128295      0.000129916           
 VIB|      H                      -0.000777013     -0.000549106     -0.000554303           
 VIB|      H                       0.000274747     -0.000010681     -0.000277347           
 VIB|      H                      -0.000246502     -0.000014290      0.000081642           
 VIB|      O                       0.000910735     -0.000114673      0.000258486           
 VIB|      H                      -0.000479558      0.000044035      0.000387535           
 VIB|      H                      -0.001214529      0.000498537     -0.000387540           
 VIB| REPLICA Nr.    6- Energy and Forces for particle:    2  coordinate: Z + DZ
 VIB|                                     Total Energy:           -141.201199210
 VIB|    ATOM                            X                Y                Z
 VIB|      Si                     -0.000837492     -0.000300876      0.001239395           
 VIB|      Si                      0.000482391      0.000488891     -0.004567765           
 VIB|      O                       0.000548559     -0.000069980      0.001093631           
 VIB|      O                       0.000032271     -0.000213233      0.001336538           
 VIB|      O                      -0.000257248     -0.000706886      0.001100643           
 VIB|      O                       0.001109367      0.000274311     -0.000227374           
 VIB|      O                       0.000025445      0.000650315      0.000125877           
 VIB|      O                       0.000015064     -0.000072228      0.000815723           
 VIB|      O                      -0.000379710     -0.000421356      0.000125029           
 VIB|      H                      -0.000002503      0.000512701     -0.000492403           
 VIB|      H                       0.000089001     -0.000283321     -0.000182621           
 VIB|      H                       0.000453138      0.000119512      0.000135599           
 VIB|      H                      -0.000763422     -0.000542388     -0.000534928           
 VIB|      H                       0.000569038     -0.000359818     -0.000239092           
 VIB|      H                      -0.000278787      0.000152709      0.000121180           
 VIB|      O                       0.000856675     -0.000240738      0.000274279           
 VIB|      H                      -0.000363216      0.000038850      0.000303257           
[...]
     8  O            -0.01  0.01  0.01    -0.06  0.04  0.05    -0.06  0.04  0.05
     9  O             0.00 -0.03 -0.01    -0.10 -0.01  0.02    -0.03 -0.03  0.06
    10  H            -0.14  0.01 -0.05     0.13  0.05  0.01    -0.01  0.03 -0.03
    11  H            -0.01  0.00  0.00    -0.02  0.02 -0.03    -0.04  0.03  0.00
    12  H            -0.01 -0.01 -0.01    -0.01 -0.04  0.04     0.00 -0.02  0.06
    13  H             0.01  0.00  0.01     0.02  0.03  0.02     0.03  0.01  0.03
    14  H            -0.04  0.06  0.04    -0.10  0.08  0.10     0.02 -0.07 -0.01
    15  H             0.29  0.10  0.10     0.30 -0.15  0.79    -0.38  0.20 -0.80
    16  O             0.02 -0.02 -0.04    -0.03  0.00 -0.01     0.03  0.00  0.02
    17  H             0.15  0.68  0.60    -0.01 -0.22 -0.06     0.01  0.18  0.03
    18  H            -0.09  0.00  0.10     0.17  0.21  0.07    -0.16 -0.21 -0.08


 VIB|                        28                   29                   30
 VIB|Frequency (cm^-1)   811.932431           828.149436           844.418200
 VIB|Intensities           0.000000             0.000000             0.000000
 VIB|Red.Masses (a.u.)     3.654510             1.862449             1.792375
 VIB|Frc consts (a.u.)     0.004066             0.002243             0.002333
  ATOM  EL             X     Y     Z        X     Y     Z        X     Y     Z  
     1  Si            0.06  0.10 -0.05     0.02  0.04  0.07     0.08 -0.01  0.00
     2  Si            0.05  0.01  0.11    -0.01 -0.02 -0.02     0.01  0.00  0.02
     3  O            -0.11  0.10  0.02     0.00  0.00  0.00    -0.02  0.02  0.00
     4  O            -0.06 -0.11 -0.03     0.01  0.03  0.00    -0.01 -0.01  0.00
     5  O            -0.06 -0.05 -0.06     0.00  0.01  0.02    -0.01 -0.02  0.00
     6  O            -0.08 -0.14 -0.13    -0.05 -0.09 -0.03    -0.02 -0.03 -0.03
     7  O             0.08 -0.05  0.09    -0.09  0.10 -0.02    -0.10  0.06 -0.07
     8  O            -0.06  0.05  0.02     0.07 -0.05 -0.07    -0.05  0.01  0.13
     9  O             0.07  0.03 -0.05     0.01  0.00  0.00     0.01  0.00 -0.01
    10  H            -0.04 -0.22 -0.10    -0.02  0.09  0.04     0.00 -0.07 -0.05
    11  H            -0.22  0.18  0.44     0.01  0.03  0.16     0.40 -0.18 -0.82
    12  H             0.09  0.12  0.33    -0.11 -0.17 -0.18     0.09  0.09  0.19
    13  H             0.17 -0.06  0.08     0.63 -0.62  0.24     0.03 -0.06 -0.03
    14  H             0.37 -0.29 -0.18    -0.01  0.01  0.00     0.09 -0.07 -0.04
    15  H             0.13 -0.11  0.26     0.00  0.00  0.00     0.03 -0.01  0.04
    16  O             0.00  0.00 -0.01     0.00  0.00  0.00     0.00  0.00  0.00
    17  H             0.00 -0.01  0.03     0.00 -0.01 -0.01     0.00  0.01  0.02
    18  H             0.05  0.06  0.02     0.00  0.00  0.00     0.01  0.01  0.01


 VIB|                        31                   32                   33
 VIB|Frequency (cm^-1)   873.622337           895.983822           923.476327
 VIB|Intensities           0.000000             0.000000             0.000000
 VIB|Red.Masses (a.u.)     2.474542             1.588291             2.221479
 VIB|Frc consts (a.u.)     0.003690             0.002621             0.004136
  ATOM  EL             X     Y     Z        X     Y     Z        X     Y     Z  
     1  Si           -0.01  0.00  0.01    -0.06  0.00  0.02    -0.06 -0.04 -0.02
     2  Si           -0.05 -0.13 -0.05    -0.02 -0.05 -0.01    -0.08  0.11 -0.03
     3  O            -0.10  0.08  0.06    -0.01  0.03 -0.03     0.07 -0.11  0.07
     4  O             0.06  0.15  0.05     0.02  0.06  0.04    -0.02 -0.05  0.00
     5  O             0.01  0.02  0.01     0.00 -0.02  0.04     0.01  0.02 -0.02
     6  O             0.01  0.01  0.03     0.00  0.02 -0.07     0.02  0.05 -0.01
     7  O             0.00 -0.01 -0.01     0.03  0.00  0.03     0.03  0.01  0.04
     8  O             0.01 -0.01 -0.01     0.05 -0.03 -0.04     0.01  0.00  0.01
     9  O             0.08  0.00 -0.04     0.04  0.01 -0.02     0.06  0.02 -0.02
    10  H             0.08  0.10  0.02     0.01 -0.19 -0.18    -0.02  0.00  0.02
    11  H            -0.01 -0.02 -0.01     0.09 -0.04 -0.10     0.06 -0.02 -0.09
    12  H            -0.07 -0.10 -0.17     0.28  0.45  0.68     0.11  0.19  0.24
    13  H            -0.18  0.15 -0.07     0.10 -0.05  0.04     0.28 -0.24  0.14
    14  H             0.62 -0.55 -0.27    -0.25  0.21  0.07     0.56 -0.53 -0.14
    15  H             0.19  0.04  0.05     0.06  0.04 -0.05    -0.14 -0.14  0.04
    16  O            -0.01  0.00  0.00     0.00  0.00  0.00     0.01  0.00  0.00
    17  H             0.01  0.01  0.02     0.00 -0.02 -0.01     0.01  0.04  0.02
    18  H             0.01  0.03  0.02     0.01  0.01 -0.01    -0.02 -0.02  0.00


 VIB|                        34                   35                   36
 VIB|Frequency (cm^-1)   931.730281           940.809006           971.952232
 VIB|Intensities           0.000000             0.000000             0.000000
 VIB|Red.Masses (a.u.)     4.364422             3.014337             2.329225
 VIB|Frc consts (a.u.)     0.008421             0.006046             0.005322
  ATOM  EL             X     Y     Z        X     Y     Z        X     Y     Z  
     1  Si           -0.12 -0.02 -0.06    -0.05  0.14  0.12    -0.08  0.08 -0.06
     2  Si            0.18 -0.02 -0.04     0.03  0.06 -0.04    -0.06 -0.02  0.08
     3  O            -0.10  0.10  0.01     0.01 -0.03  0.02     0.02 -0.01 -0.02
     4  O            -0.01 -0.01 -0.01    -0.01 -0.05 -0.04     0.00  0.01  0.02
     5  O             0.02  0.06 -0.11     0.01 -0.02  0.03     0.01  0.00 -0.07
     6  O             0.02  0.05  0.03    -0.04 -0.10 -0.06     0.00 -0.02  0.05
     7  O             0.08  0.00  0.11     0.02 -0.05 -0.02     0.07 -0.04  0.08
     8  O             0.03 -0.03  0.03     0.11 -0.10 -0.08     0.04 -0.05  0.02
     9  O            -0.22 -0.06  0.12    -0.06 -0.01  0.04     0.09  0.03 -0.06
    10  H             0.08  0.11  0.14    -0.05  0.21  0.18    -0.06 -0.21 -0.21
    11  H             0.23 -0.12 -0.40     0.24 -0.17 -0.37     0.27 -0.16 -0.49
    12  H             0.03  0.06  0.04    -0.01 -0.03  0.07    -0.20 -0.32 -0.49
    13  H             0.46 -0.39  0.25    -0.48  0.46 -0.21     0.11 -0.09  0.10
    14  H             0.22 -0.14 -0.12     0.23 -0.20 -0.07    -0.21  0.18  0.08
    15  H             0.11  0.17  0.05    -0.09 -0.04  0.03    -0.02 -0.06 -0.01
    16  O             0.00 -0.01  0.00     0.01  0.00 -0.01     0.00  0.00  0.00
    17  H            -0.01 -0.03 -0.02     0.01  0.03  0.03     0.00  0.00  0.00
    18  H             0.01  0.01  0.01    -0.03 -0.03  0.01     0.01  0.00 -0.01


 VIB|                        37                   38                   39
 VIB|Frequency (cm^-1)  1054.376290          1085.598943          1124.837992
 VIB|Intensities           0.000000             0.000000             0.000000
 VIB|Red.Masses (a.u.)     2.979989             1.754297             1.145799
 VIB|Frc consts (a.u.)     0.009429             0.006238             0.004696
  ATOM  EL             X     Y     Z        X     Y     Z        X     Y     Z  
     1  Si            0.00  0.05 -0.13    -0.01 -0.03  0.03     0.00  0.00  0.00
     2  Si           -0.02 -0.02 -0.02    -0.03 -0.04  0.07     0.03 -0.03 -0.02
     3  O             0.00  0.01 -0.02     0.01  0.00 -0.01    -0.01  0.02  0.00
     4  O             0.02 -0.01 -0.07     0.02  0.00 -0.05     0.00  0.01  0.01
     5  O            -0.04 -0.11  0.26     0.03  0.06 -0.14     0.00  0.00  0.01
     6  O             0.01  0.00  0.02    -0.01 -0.01 -0.02     0.00  0.00  0.00
     7  O             0.04 -0.01  0.05     0.00  0.00  0.00     0.00  0.00  0.00
     8  O            -0.01  0.01  0.03     0.00  0.00  0.00     0.00  0.00  0.00
     9  O             0.01  0.00 -0.02     0.03  0.01 -0.02     0.00  0.06  0.01
    10  H             0.07  0.68  0.58     0.11  0.69  0.59    -0.03 -0.06 -0.07
    11  H             0.05 -0.03 -0.13     0.00  0.00 -0.01    -0.01  0.00  0.01
    12  H             0.00  0.00  0.00     0.07  0.12  0.21     0.00 -0.01 -0.01
    13  H             0.16 -0.11  0.08    -0.02  0.02  0.00     0.01  0.00  0.00
    14  H            -0.06  0.04  0.00    -0.10  0.11  0.05    -0.02  0.02  0.00
    15  H             0.01  0.01 -0.04    -0.10 -0.10  0.05    -0.72 -0.56  0.28
    16  O             0.00  0.00 -0.01     0.00  0.00  0.00     0.02  0.00 -0.01
    17  H             0.02  0.06  0.05     0.01  0.04  0.04     0.05  0.18  0.17
    18  H            -0.05 -0.02  0.03    -0.03 -0.01  0.02    -0.07 -0.06  0.01


 VIB|                        40                   41                   42
 VIB|Frequency (cm^-1)  1628.270115          3361.024172          3490.760079
 VIB|Intensities           0.000000             0.000000             0.000000
 VIB|Red.Masses (a.u.)     1.074658             1.067917             1.060368
 VIB|Frc consts (a.u.)     0.019340             0.348896             0.403096
  ATOM  EL             X     Y     Z        X     Y     Z        X     Y     Z  
     1  Si            0.00  0.00  0.00     0.00  0.00  0.00     0.00  0.00  0.00
     2  Si            0.00  0.00  0.00     0.00  0.00  0.00     0.00  0.00  0.00
     3  O             0.00  0.00  0.00     0.00  0.00  0.00     0.00  0.00  0.00
     4  O             0.00  0.00  0.00     0.00  0.00  0.00     0.00  0.01 -0.01
     5  O             0.00  0.00  0.00     0.00  0.00  0.00     0.00  0.00  0.00
     6  O             0.00  0.00  0.00     0.00  0.00  0.00     0.00  0.00  0.00
     7  O             0.00  0.00  0.00     0.00  0.00  0.00     0.00  0.00  0.00
     8  O             0.00  0.00  0.00     0.00  0.00  0.00     0.00  0.00  0.00
     9  O             0.00  0.00  0.00    -0.03  0.05  0.02     0.01 -0.01 -0.01
    10  H            -0.02  0.03  0.02     0.00  0.00  0.00    -0.07 -0.09  0.10
    11  H             0.00  0.00  0.00     0.00  0.00  0.00     0.00  0.00  0.00
    12  H             0.00  0.00  0.00     0.00  0.00  0.00     0.00  0.00  0.01
    13  H             0.00  0.00  0.00     0.00  0.00  0.00     0.00  0.00  0.00
    14  H             0.00  0.00  0.00     0.00  0.00  0.01     0.00  0.00 -0.01
    15  H            -0.03 -0.03  0.00     0.48 -0.73 -0.38    -0.14  0.22  0.11
    16  O            -0.02 -0.05  0.04     0.01  0.00 -0.01     0.05  0.01 -0.02
    17  H            -0.22  0.59 -0.43    -0.27 -0.03  0.09    -0.89 -0.09  0.28
    18  H             0.54  0.20 -0.29     0.03 -0.04  0.02     0.10 -0.09  0.06


 VIB|                        43                   44                   45
 VIB|Frequency (cm^-1)  3575.701645          3756.171924          3761.129569
 VIB|Intensities           0.000000             0.000000             0.000000
 VIB|Red.Masses (a.u.)     1.066458             1.066230             1.066199
 VIB|Frc consts (a.u.)     0.446335             0.543382             0.546240
  ATOM  EL             X     Y     Z        X     Y     Z        X     Y     Z  
     1  Si            0.00  0.00  0.00     0.00  0.00  0.00     0.00  0.00  0.00
     2  Si            0.00  0.00  0.00     0.00  0.00  0.00     0.00  0.00  0.00
     3  O             0.00  0.00  0.00     0.00  0.00  0.00     0.00  0.00  0.00
     4  O             0.03  0.04 -0.04     0.00  0.00  0.00     0.00  0.00  0.00
     5  O             0.00  0.00  0.00     0.00  0.00  0.00     0.00  0.00  0.00
     6  O             0.00  0.00  0.00     0.00  0.01 -0.01     0.02  0.05 -0.03
     7  O             0.00  0.00  0.00     0.00  0.00  0.00     0.00  0.00  0.00
     8  O             0.00  0.00  0.00    -0.03  0.04 -0.02     0.01 -0.01  0.01
     9  O             0.00  0.00  0.00     0.00  0.00  0.00     0.00  0.00  0.00
    10  H            -0.43 -0.58  0.67     0.00  0.00  0.00     0.01  0.02 -0.02
    11  H            -0.01  0.01  0.00     0.55 -0.67  0.40    -0.16  0.20 -0.12
    12  H            -0.01 -0.02  0.02    -0.07 -0.23  0.16    -0.24 -0.76  0.52
    13  H             0.00  0.00  0.00     0.01  0.01  0.02    -0.01 -0.03 -0.05
    14  H             0.00  0.00  0.01     0.00  0.00  0.00     0.00 -0.02  0.04
    15  H             0.02 -0.03 -0.02     0.00  0.00  0.00     0.00  0.00  0.00
    16  O            -0.01  0.00  0.00     0.00  0.00  0.00     0.00  0.00  0.00
    17  H             0.14  0.01 -0.04     0.00  0.00  0.00     0.00  0.00  0.00
    18  H            -0.02  0.02 -0.02     0.00  0.00  0.00     0.00  0.01  0.00


 VIB|                        46                   47                   48
 VIB|Frequency (cm^-1)  3766.816748          3779.821655          3787.590327
 VIB|Intensities           0.000000             0.000000             0.000000
 VIB|Red.Masses (a.u.)     1.066072             1.066396             1.069011
 VIB|Frc consts (a.u.)     0.549486             0.557283             0.563257
  ATOM  EL             X     Y     Z        X     Y     Z        X     Y     Z  
     1  Si            0.00  0.00  0.00     0.00  0.00  0.00     0.00  0.00  0.00
     2  Si            0.00  0.00  0.00     0.00  0.00  0.00     0.00  0.00  0.00
     3  O             0.00  0.03 -0.05     0.00  0.00  0.00     0.00  0.00  0.00
     4  O             0.00  0.00  0.00     0.00  0.00  0.00     0.00  0.00  0.00
     5  O             0.00  0.00  0.00     0.00  0.00  0.00     0.00  0.00  0.00
     6  O             0.00  0.00  0.00     0.00  0.00  0.00     0.00  0.00  0.00
     7  O             0.00  0.00  0.00     0.01  0.03  0.05     0.00  0.00  0.00
     8  O             0.00  0.00  0.00     0.00  0.00  0.00     0.00  0.00  0.00
     9  O             0.00  0.00  0.00     0.00  0.00  0.00     0.00  0.00  0.00
    10  H             0.00  0.01 -0.01     0.00  0.00  0.00    -0.01 -0.01  0.01
    11  H             0.01 -0.01  0.00     0.03 -0.03  0.02     0.00  0.00  0.00
    12  H             0.01  0.03 -0.02     0.01  0.04 -0.03     0.00 -0.01  0.01
    13  H             0.00  0.01  0.02    -0.20 -0.51 -0.83     0.01  0.01  0.02
    14  H             0.00 -0.45  0.89     0.00 -0.01  0.02     0.00  0.01 -0.02
    15  H             0.00  0.01  0.00     0.00  0.00  0.00    -0.01  0.01  0.00
    16  O             0.00  0.00  0.00     0.00  0.00  0.00    -0.04  0.04 -0.03
    17  H             0.00  0.00  0.00     0.00  0.00  0.00     0.13  0.04 -0.06
    18  H             0.02 -0.02  0.01     0.02 -0.02  0.01     0.54 -0.67  0.48



 -------------------------------------------------------------------------------
 ----                             MULTIGRID INFO                            ----
 -------------------------------------------------------------------------------
 count for grid        1:        3265920          cutoff [a.u.]          400.00
 count for grid        2:        2996352          cutoff [a.u.]          133.33
 count for grid        3:        3780864          cutoff [a.u.]           44.44
 count for grid        4:        2477952          cutoff [a.u.]           14.81
 count for grid        5:         511488          cutoff [a.u.]            4.94
 count for grid        6:          31104          cutoff [a.u.]            1.65
 total gridlevel count  :       13063680

 -------------------------------------------------------------------------------
 -                                                                             -
 -                         MESSAGE PASSING PERFORMANCE                         -
 -                                                                             -
 -------------------------------------------------------------------------------

 ROUTINE             CALLS  TOT TIME [s]  AVE VOLUME [Bytes]  PERFORMANCE [MB/s]
 MP_Group                8         0.000
 MP_Bcast               91         0.421            5768848.             1247.24
 MP_Allreduce          159         0.763              32869.                6.85
 MP_Sync                 6         0.002
 -------------------------------------------------------------------------------


 -------------------------------------------------------------------------------
 -                                                                             -
 -                           R E F E R E N C E S                               -
 -                                                                             -
 -------------------------------------------------------------------------------
 
 CP2K version 2.3, the CP2K developers group (2012).
 CP2K is freely available from http://www.cp2k.org/ .

 VandeVondele, J; Hutter, J. 
 JOURNAL OF CHEMICAL PHYSICS, 127 (11), 114105 (2007). 
 Gaussian basis sets for accurate calculations on molecular systems in
 gas and condensed phases.
 http://dx.doi.org/10.1063/1.2770708


 Krack, M. 
 THEORETICAL CHEMISTRY ACCOUNTS, 114 (1-3), 145-152 (2005). 
 Pseudopotentials for H to Kr optimized for gradient-corrected
 exchange-correlation functionals.
 http://dx.doi.org/10.1007/s00214-005-0655-y


 VandeVondele, J; Krack, M; Mohamed, F; Parrinello, M; Chassaing, T;
 Hutter, J. COMPUTER PHYSICS COMMUNICATIONS, 167 (2), 103-128 (2005). 
 QUICKSTEP: Fast and accurate density functional calculations using a
 mixed Gaussian and plane waves approach.
 http://dx.doi.org/10.1016/j.cpc.2004.12.014


 Kolafa, J. 
 JOURNAL OF COMPUTATIONAL CHEMISTRY, 25 (3), 335-342 (2004). 
 Time-reversible always stable predictor-corrector method for molecular dynamics of polarizable molecules.
 http://dx.doi.org/10.1002/jcc.10385


 VandeVondele, J; Hutter, J. 
 JOURNAL OF CHEMICAL PHYSICS, 118 (10), 4365-4369 (2003). 
 An efficient orbital transformation method for electronic structure
 calculations.
 http://dx.doi.org/10.1063/1.1543154


 Martyna, GJ; Tuckerman, ME. 
 JOURNAL OF CHEMICAL PHYSICS, 110 (6), 2810-2821 (1999). 
 A reciprocal space based method for treating long range interactions in
 ab initio and force-field-based calculations in clusters.
 http://dx.doi.org/10.1063/1.477923


 Hartwigsen, C; Goedecker, S; Hutter, J. 
 PHYSICAL REVIEW B, 58 (7), 3641-3662 (1998). 
 Relativistic separable dual-space Gaussian pseudopotentials from H to Rn.
 http://dx.doi.org/10.1103/PhysRevB.58.3641


 Lippert, G; Hutter, J; Parrinello, M. 
 MOLECULAR PHYSICS, 92 (3), 477-487 (1997). 
 A hybrid Gaussian and plane wave density functional scheme.
 http://dx.doi.org/10.1080/002689797170220


 Perdew, JP; Burke, K; Ernzerhof, M. 
 PHYSICAL REVIEW LETTERS, 77 (18), 3865-3868 (1996). 
 Generalized gradient approximation made simple.
 http://dx.doi.org/10.1103/PhysRevLett.77.3865


 Goedecker, S; Teter, M; Hutter, J. 
 PHYSICAL REVIEW B, 54 (3), 1703-1710 (1996). 
 Separable dual-space Gaussian pseudopotentials.
 http://dx.doi.org/10.1103/PhysRevB.54.1703


 -------------------------------------------------------------------------------
 -                                                                             -
 -                                T I M I N G                                  -
 -                                                                             -
 -------------------------------------------------------------------------------
 SUBROUTINE                       CALLS  ASD         SELF TIME        TOTAL TIME
                                              AVERAGE  MAXIMUM  AVERAGE  MAXIMUM
 CP2K                                 1  1.0    0.449    0.534  409.174  409.252
 vb_anal                              1  2.0  403.644  404.006  406.314  406.410
 -------------------------------------------------------------------------------

  **** **** ******  **  PROGRAM ENDED AT                 2012-12-31 04:36:10.496
 ***** ** ***  *** **   PROGRAM RAN ON                                       f19
 **    ****   ******    PROGRAM RAN BY                                          
 ***** **    ** ** **   PROGRAM PROCESS ID                                 17877
  **** **  *******  **  PROGRAM STOPPED IN /fusion/gpfs/home/jlow/pyrosilicate/p
                                           yrosilic_acid_hydrate/cp2k/geom_opt
