
                                 *****************
                                 * O   R   C   A *
                                 *****************

           --- An Ab Initio, DFT and Semiempirical electronic structure package ---

                  ########################################################
                  #                         -***-                        #
                  #               Developed by Frank Neese               #
                  #           Lehrstuhl fuer Theoretische Chemie         #
                  #  Institut fuer Physikalische und Theoretische Chemie #
                  #                    Universitaet Bonn                 #
                  #                        Germany                       #
                  #                theochem@thch.uni-bonn.de             #
                  #                                                      #
                  #                   All rights reserved                #
                  #                         -***-                        #
                  ########################################################


                         Program Version 2.6 - Revision 35 -
                                (SVN: $Rev: 864$)
                ($Date: 2008-02-28 16:59:30 +0100 (Thu, 28 Feb 2008) $)


 With contributions from (in alphabetic order):
   Ute Becker           : Parallelization
   Dmitry Ganyushin     : Spin-Orbit,Magnetic field MRCI
   Simone Kossmann      : meta GGA functionals
   Taras Petrenko       : Resonance Raman, NRVS
   Christoph Riplinger  : Improved optimizer
   Frank Wennmohs       : Multiple parts of the code


 We gratefully acknowledge several collegues who have allowed us to
 interface, adapt or use parts of their codes:
   Markus Reiher, Alexander Wolf and Bernd Hess : otool_dkh (higher order DKH)
   Andreas Klamt, Michael Diedenhofen           : otool_cosmo (COSMO solvation model)
   Alain StAmant                                : redundant internal coordinate setup
   Reinhart Ahlrichs                            : matrix diagonalization, basis sets
   Frank Weinhold                               : gennbo (NPA and NBO analysis)


Your calculation utilizes the basis: 6-31G
Cite in your paper:
H - He: W.J. Hehre, R. Ditchfield and J.A. Pople, J. Chem. Phys. 56,
Li - Ne: 2257 (1972).  Note: Li and B come from J.D. Dill and J.A.
         Pople, J. Chem. Phys. 62, 2921 (1975).
Na - Ar: M.M. Francl, W.J. Pietro, W.J. Hehre, J.S. Binkley, M.S. Gordon,
         D.J. DeFrees and J.A. Pople, J. Chem. Phys. 77, 3654 (1982)
K  - Zn: V. Rassolov, J.A. Pople, M. Ratner and T.L. Windus, J. Chem. Phys.
         (accepted, 1998)
Note: He and Ne are unpublished basis sets taken from the Gaussian program

Your calculation utilizes diff. fcns from basis: 6-311++G(2d,2p)
Cite in your paper:
H, Li - Ne: R. Krishnan, J.S. Binkley, R. Seeger and J.A. Pople,
            J. Chem. Phys. 72, 650 (1980)
Na - Ar:    A.D. McLean and G.S. Chandler J. Chem. Phys. 72, 5639, (1980).
K  - Ca:    J-P. Blaudeau, M. P. McGrath, L.A. Curtiss and L. Radom,
            J. Chem. Phys. 107, 5016 (1997).
Ga - Kr:    L. A. Curtiss, M. P. McGrath, J-P. Blandeau, N. E. Davis,
            R. C. Binning, Jr. L. Radom, J. Chem. Phys. 103, 6104 (1995).
H - Ar:  R. Krishnan, J.S. Binkley, R. Seeger, J.A. Pople, J. Chem. Phys. 72,650 (1980)
H, Li-Cl: T. Clark, J. Chandrasekhar, P.V.R. Schleyer, J. Comp. Chem. 4, 294 (1983)



*****************************************
The coordinations will be read from file: R.xyz
*****************************************


================================================================================
                                       INPUT FILE
================================================================================
NAME = R_b3lyp-d.inp
|  1> ! RKS VDW B3LYP/G 6-31+G*  
|  2> %scf
|  3> MaxIntMem 2000
|  4> MaxIter 0
|  5> end
|  6> 
|  7> * xyzfile 0 1 R.xyz
|  8> 
|  9> 
| 10>                          ****END OF INPUT****
================================================================================

                       ****************************
                       * Single Point Calculation *
                       ****************************

---------------------------------
CARTESIAN COORDINATES (ANGSTROEM)
---------------------------------
  O     0.781289    0.338606   -0.127572
  Al    1.718110    0.466500    1.491137
  O     3.433187    0.420905    1.426731
  Si    4.603811   -0.383482    2.255831
  O     4.491586   -0.301388    3.917715
  Si    4.579037   -0.406325    5.524332
  O     3.210662    0.224924    6.107444
  Si    1.630991    0.538953    6.253205
  O     1.419135    2.138246    6.268030
  Si    1.952067    3.515476    5.633145
  O     2.150275    3.257473    4.065862
  Si    1.888636    3.381335    2.438599
  O     3.327355    3.924106    1.795160
  Si    4.886677    4.296083    1.628987
  O     5.126591    4.641728    0.056884
  Si    4.938726    4.297637   -1.512528
  O     5.811489    2.982862   -1.855686
  Si    6.797473    1.756835   -1.485630
  O     5.969728    0.395774   -1.717676
  Si    4.592691   -0.389251   -2.155710
  O     4.469765   -0.265176   -3.814599
  Si    4.691284   -0.407615   -5.416304
  O     3.361989    0.229856   -6.077891
  Si    1.789034    0.550870   -6.249817
  O     1.068372   -0.013999   -4.924302
  Si    0.670364   -1.197464   -3.856743
  O     1.187676   -0.833892   -2.346771
  Si    1.708704    0.437630   -1.521204
  O     3.305332    0.324399   -1.354373
  O     1.337113    1.901342   -2.067391
  Si    1.984682    3.372639   -2.421859
  O     0.877174    4.538805   -2.077573
  Si    0.536106    6.027619   -1.574185
  O     0.825761    6.131416    0.007178
  Si    0.487960    6.053400    1.587035
  O    -1.095091    6.263378    1.771083
  Si   -2.418739    6.916850    2.370619
  O    -3.667455    6.030712    1.896414
  Si   -5.201594    5.790200    1.484417
  O    -5.303067    5.436382   -0.068844
  Si   -5.158353    5.790391   -1.617113
  O    -3.611595    6.029497   -1.986974
  Si   -2.352912    6.910443   -2.443338
  O    -1.031973    6.246257   -1.845772
  O     3.397853    3.836836   -1.702721
  O     2.257517    3.337266   -4.038494
  Si    2.084116    3.524733   -5.614818
  O     1.564768    2.142153   -6.245474
  O     7.155482    1.903553    0.074203
  Si    6.766343    1.752615    1.634303
  O     5.740490    2.961939    1.958206
  O     6.042689    0.337139    1.860556
  O     4.718130   -1.978575    1.845545
  Si    4.335550   -3.519754    1.609412
  O     4.002555   -3.747335    0.049986
  Si    4.370008   -3.530680   -1.493076
  O     4.712820   -1.977827   -1.762972
  O     3.001983   -3.760042    2.475743
  Si    2.137237   -3.875293    3.820923
  O     3.216560   -4.089573    5.011972
  Si    4.207448   -3.550743    6.161303
  O     4.542475   -1.993562    5.885799
  O     1.277553   -2.595731    4.303068
  Si    0.530154   -1.191692    3.807931
  O     1.153151   -0.916882    2.306867
  O     1.129755   -5.122211    3.704493
  Si    0.399373   -6.309535    4.494794
  O    -1.125270   -6.372617    3.989915
  Si   -2.431387   -5.454665    3.803720
  O    -2.011928   -3.899604    3.915248
  Si   -2.210628   -2.382207    4.436956
  O    -1.058363   -1.434263    3.852327
  O     0.916971   -0.033373    4.930156
  O     0.826260    4.622981    2.207323
  O     1.173487    2.056825    1.820408
  O    -5.782362    4.571894    2.348609
  Si   -6.342130    4.111437    3.773380
  O    -6.117729    2.531434    3.885470
  Si   -6.646996    1.106084    4.386443
  O    -5.486121    0.029753    4.129073
  Si   -5.172658   -1.521826    3.837705
  O    -5.748702   -1.897236    2.375223
  Si   -6.154389   -3.171415    1.482101
  O    -5.873548   -2.907021   -0.079536
  Si   -6.160268   -3.198714   -1.634014
  O    -5.254110   -4.477574   -2.063633
  Si   -4.411847   -5.797789   -1.621689
  O    -4.149639   -5.678979   -0.046977
  Si   -4.441250   -5.796817    1.524937
  O    -5.279836   -4.463851    1.931470
  O    -3.616253   -1.857162    3.876788
  O     3.052551   -3.775618   -2.388894
  Si    2.244471   -3.911803   -3.762475
  O     1.196689   -5.121577   -3.678111
  Si    0.493428   -6.320252   -4.480926
  O    -1.039398   -6.380648   -4.008860
  Si   -2.348953   -5.460213   -3.853024
  O    -1.931023   -3.903229   -3.965299
  Si   -2.121082   -2.385643   -4.482343
  O    -3.517013   -1.830085   -3.922308
  Si   -5.086610   -1.529017   -3.945949
  O    -5.390078    0.023853   -4.241345
  Si   -6.543342    1.099517   -4.541693
  O    -6.024695    2.524638   -4.029541
  Si   -6.250076    4.106334   -3.927685
  O    -5.713848    4.568637   -2.495224
  O     3.344993   -4.132266   -4.930701
  Si    4.344745   -3.562129   -6.058281
  O     4.658355   -2.001731   -5.744299
  O     1.458874   -2.588594   -4.262138
  O    -3.076798   -5.765922    2.364274
  O    -5.737478   -1.925088   -2.523548
  O    -0.946320   -1.461873   -3.906389
  O    -3.027275   -5.759408   -2.430057
  H    -7.461736   -3.475047    1.672620
  H     5.336823    5.333002    2.402570
  H     1.020473   -7.440511    4.189144
  H     0.389616   -6.002421    5.831100
  H    -3.312647   -5.725324    4.812664
  H    -5.163081   -6.934030    1.763485
  H     0.521654   -5.992512   -5.812431
  H     1.120432   -7.446323   -4.167811
  H    -3.195949   -5.726342   -4.888557
  H    -5.117856   -6.937240   -1.882606
  H    -7.465342   -3.534001   -1.840990
  H     1.235129    6.957832   -2.299636
  H    -2.439492    8.168644   -1.901951
  H    -2.331851    6.978237   -3.812545
  H    -5.841746    6.949451   -1.897743
  H    -5.576886    4.767113   -4.916973
  H    -7.736113    0.770407   -3.930843
  H    -6.729370    1.193690   -5.894684
  H    -5.669963   -2.304336   -4.917683
  H    -2.085542   -2.357656   -5.848791
  H    -5.790587   -2.295821    4.782136
  H    -6.872541    1.202423    5.730676
  H    -7.823140    0.776829    3.742097
  H    -7.681376    4.394245    3.791679
  H    -5.697780    4.779979    4.775146
  H    -5.888417    6.949934    1.740381
  H    -2.429373    7.002497    3.738825
  H    -2.488737    8.166639    1.810992
  H     1.171709    6.984211    2.294079
  H     1.051581    4.487578    5.894725
  H     3.185673    3.767089    6.124273
  H    -7.589306    4.391669   -3.986073
  H    -2.241370   -2.364610    5.800486
  H     1.160931    0.033348    7.397305
  H     5.642523    0.266511    6.083988
  H     5.341549   -4.297262    6.043715
  H     3.575941   -3.711046    7.370113
  H     5.410851   -4.290689    1.944272
  H     7.847501    1.790512    2.395935
  H     7.885055    1.776995   -2.247829
  H     5.373045    5.317139   -2.318026
  H     3.331218    3.734230   -6.048493
  H     1.180760    4.470496   -5.875918
  H     1.319724    0.012457   -7.364722
  H     5.771824    0.267209   -5.948848
  H     3.729509   -3.709520   -7.280861
  H     5.476052   -4.305279   -5.919039
  H     5.452370   -4.281627   -1.847651
  C    -0.647214    0.943777   -0.173202
  C    -1.349130    0.630432   -1.478095
  C    -1.373569    0.366835    1.030231
  H    -5.310578    0.720002   -0.369959
  C    -2.903662    0.275246    0.956928
  C    -3.694397    1.532569    0.758846
  C    -4.861032    1.593376    0.103017
  H    -5.427998    2.515132    0.027514
  H    -3.301741    2.433190    1.233832
  H    -3.143455   -0.141938    1.948086
  H    -3.220334   -0.492914    0.242090
  H    -1.099000    0.925560    1.928391
  H    -1.024475   -0.655164    1.189774
  H    -0.461610    2.011050   -0.064611
  H    -2.320835    1.132758   -1.439331
  H    -1.527612   -0.441714   -1.578992
  H    -0.831845    1.025567   -2.351292

----------------------------
CARTESIAN COORDINATES (A.U.)
----------------------------
  NO LB    ZA    FRAG    MASS        X           Y           Z
   0 O   8.0000    0    15.999    1.476422    0.639873   -0.241076
   1 Al 13.0000    0    26.982    3.246757    0.881557    2.817841
   2 O   8.0000    0    15.999    6.487783    0.795395    2.696131
   3 Si 14.0000    0    28.086    8.699942   -0.724676    4.262903
   4 O   8.0000    0    15.999    8.487867   -0.569541    7.403408
   5 Si 14.0000    0    28.086    8.653126   -0.767843   10.439475
   6 O   8.0000    0    15.999    6.067272    0.425045   11.541397
   7 Si 14.0000    0    28.086    3.082126    1.018474   11.816845
   8 O   8.0000    0    15.999    2.681776    4.040699   11.844860
   9 Si 14.0000    0    28.086    3.688872    6.643287   10.645101
  10 O   8.0000    0    15.999    4.063431    6.155732    7.683366
  11 Si 14.0000    0    28.086    3.569005    6.389797    4.608284
  12 O   8.0000    0    15.999    6.287790    7.415486    3.392361
  13 Si 14.0000    0    28.086    9.234481    8.118420    3.078339
  14 O   8.0000    0    15.999    9.687853    8.771595    0.107495
  15 Si 14.0000    0    28.086    9.332840    8.121357   -2.858264
  16 O   8.0000    0    15.999   10.982123    5.636792   -3.506738
  17 Si 14.0000    0    28.086   12.845362    3.319937   -2.807434
  18 O   8.0000    0    15.999   11.281151    0.747904   -3.245937
  19 Si 14.0000    0    28.086    8.678928   -0.735578   -4.073702
  20 O   8.0000    0    15.999    8.446632   -0.501110   -7.208547
  21 Si 14.0000    0    28.086    8.865242   -0.770281  -10.235331
  22 O   8.0000    0    15.999    6.353238    0.434365  -11.485549
  23 Si 14.0000    0    28.086    3.380784    1.040993  -11.810443
  24 O   8.0000    0    15.999    2.018930   -0.026454   -9.305582
  25 Si 14.0000    0    28.086    1.266804   -2.262879   -7.288188
  26 O   8.0000    0    15.999    2.244382   -1.575828   -4.434754
  27 Si 14.0000    0    28.086    3.228983    0.827001   -2.874659
  28 O   8.0000    0    15.999    6.246172    0.613025   -2.559394
  29 O   8.0000    0    15.999    2.526777    3.593016   -3.906803
  30 Si 14.0000    0    28.086    3.750505    6.373364   -4.576650
  31 O   8.0000    0    15.999    1.657619    8.577098   -3.926044
  32 Si 14.0000    0    28.086    1.013094   11.390549   -2.974779
  33 O   8.0000    0    15.999    1.560462   11.586697    0.013564
  34 Si 14.0000    0    28.086    0.922111   11.439268    2.999062
  35 O   8.0000    0    15.999   -2.069422   11.836069    3.346862
  36 Si 14.0000    0    28.086   -4.570754   13.070952    4.479821
  37 O   8.0000    0    15.999   -6.930486   11.396394    3.583703
  38 Si 14.0000    0    28.086   -9.829588   10.941892    2.805142
  39 O   8.0000    0    15.999  -10.021344   10.273273   -0.130096
  40 Si 14.0000    0    28.086   -9.747874   10.942253   -3.055901
  41 O   8.0000    0    15.999   -6.824925   11.394098   -3.754837
  42 Si 14.0000    0    28.086   -4.446359   13.058845   -4.617240
  43 O   8.0000    0    15.999   -1.950146   11.803715   -3.488004
  44 O   8.0000    0    15.999    6.421012    7.250569   -3.217676
  45 O   8.0000    0    15.999    4.266089    6.306519   -7.631648
  46 Si 14.0000    0    28.086    3.938408    6.660780  -10.610468
  47 O   8.0000    0    15.999    2.956983    4.048083  -11.802235
  48 O   8.0000    0    15.999   13.521901    3.597194    0.140223
  49 Si 14.0000    0    28.086   12.786535    3.311962    3.088385
  50 O   8.0000    0    15.999   10.847954    5.597254    3.700473
  51 O   8.0000    0    15.999   11.419027    0.637100    3.515941
  52 O   8.0000    0    15.999    8.915974   -3.738965    3.487575
  53 Si 14.0000    0    28.086    8.193002   -6.651371    3.041348
  54 O   8.0000    0    15.999    7.563733   -7.081437    0.094460
  55 Si 14.0000    0    28.086    8.258118   -6.672018   -2.821505
  56 O   8.0000    0    15.999    8.905939   -3.737551   -3.331534
  57 O   8.0000    0    15.999    5.672926   -7.105450    4.678476
  58 Si 14.0000    0    28.086    4.038793   -7.323242    7.220498
  59 O   8.0000    0    15.999    6.078417   -7.728173    9.471254
  60 Si 14.0000    0    28.086    7.950924   -6.709932   11.643175
  61 O   8.0000    0    15.999    8.584034   -3.767286   11.122548
  62 O   8.0000    0    15.999    2.414225   -4.905221    8.131620
  63 Si 14.0000    0    28.086    1.001846   -2.251972    7.195947
  64 O   8.0000    0    15.999    2.179140   -1.732656    4.359347
  65 O   8.0000    0    15.999    2.134928   -9.679576    7.000477
  66 Si 14.0000    0    28.086    0.754706  -11.923293    8.493930
  67 O   8.0000    0    15.999   -2.126452  -12.042501    7.539847
  68 Si 14.0000    0    28.086   -4.594656  -10.307823    7.187989
  69 O   8.0000    0    15.999   -3.801993   -7.369184    7.398746
  70 Si 14.0000    0    28.086   -4.177482   -4.501719    8.384632
  71 O   8.0000    0    15.999   -2.000016   -2.710364    7.279843
  72 O   8.0000    0    15.999    1.732824   -0.063066    9.316645
  73 O   8.0000    0    15.999    1.561405    8.736168    4.171236
  74 O   8.0000    0    15.999    2.217569    3.886836    3.440073
  75 O   8.0000    0    15.999  -10.927081    8.639628    4.438228
  76 Si 14.0000    0    28.086  -11.984889    7.769490    7.130655
  77 O   8.0000    0    15.999  -11.560832    4.783717    7.342474
  78 Si 14.0000    0    28.086  -12.561002    2.090196    8.289176
  79 O   8.0000    0    15.999  -10.367266    0.056225    7.802817
  80 Si 14.0000    0    28.086   -9.774907   -2.875834    7.252211
  81 O   8.0000    0    15.999  -10.863472   -3.585256    4.488521
  82 Si 14.0000    0    28.086  -11.630110   -5.993106    2.800765
  83 O   8.0000    0    15.999  -11.099397   -5.493474   -0.150301
  84 Si 14.0000    0    28.086  -11.641219   -6.044693   -3.087839
  85 O   8.0000    0    15.999   -9.928829   -8.461389   -3.899701
  86 Si 14.0000    0    28.086   -8.337183  -10.956233   -3.064548
  87 O   8.0000    0    15.999   -7.841681  -10.731715   -0.088774
  88 Si 14.0000    0    28.086   -8.392746  -10.954397    2.881713
  89 O   8.0000    0    15.999   -9.977444   -8.435456    3.649949
  90 O   8.0000    0    15.999   -6.833728   -3.509528    7.326068
  91 O   8.0000    0    15.999    5.768485   -7.134884   -4.514355
  92 Si 14.0000    0    28.086    4.241436   -7.392236   -7.110047
  93 O   8.0000    0    15.999    2.261414   -9.678378   -6.950622
  94 Si 14.0000    0    28.086    0.932444  -11.943545   -8.467723
  95 O   8.0000    0    15.999   -1.964178  -12.057677   -7.575648
  96 Si 14.0000    0    28.086   -4.438878  -10.318307   -7.281160
  97 O   8.0000    0    15.999   -3.649105   -7.376034   -7.493329
  98 Si 14.0000    0    28.086   -4.008264   -4.508212   -8.470401
  99 O   8.0000    0    15.999   -6.646191   -3.458359   -7.412088
 100 Si 14.0000    0    28.086   -9.612300   -2.889423   -7.456763
 101 O   8.0000    0    15.999  -10.185771    0.045076   -8.014980
 102 Si 14.0000    0    28.086  -12.365124    2.077786   -8.582556
 103 O   8.0000    0    15.999  -11.385024    4.770874   -7.614729
 104 Si 14.0000    0    28.086  -11.810932    7.759847   -7.422249
 105 O   8.0000    0    15.999  -10.797608    8.633473   -4.715290
 106 O   8.0000    0    15.999    6.321121   -7.808851   -9.317675
 107 Si 14.0000    0    28.086    8.210378   -6.731448  -11.448492
 108 O   8.0000    0    15.999    8.803015   -3.782723  -10.855152
 109 O   8.0000    0    15.999    2.756872   -4.891734   -8.054274
 110 O   8.0000    0    15.999   -5.814306  -10.896013    4.467830
 111 O   8.0000    0    15.999  -10.842262   -3.637889   -4.768815
 112 O   8.0000    0    15.999   -1.788286   -2.762540   -7.382005
 113 O   8.0000    0    15.999   -5.720721  -10.883704   -4.592142
 114 H   1.0000    0     1.008  -14.100638   -6.566887    3.160794
 115 H   1.0000    0     1.008   10.085134   10.077913    4.540199
 116 H   1.0000    0     1.008    1.928414  -14.060528    7.916335
 117 H   1.0000    0     1.008    0.736268  -11.342932   11.019182
 118 H   1.0000    0     1.008   -6.259996  -10.819294    9.094617
 119 H   1.0000    0     1.008   -9.756809  -13.103418    3.332504
 120 H   1.0000    0     1.008    0.985783  -11.324207  -10.983903
 121 H   1.0000    0     1.008    2.117310  -14.071511   -7.876021
 122 H   1.0000    0     1.008   -6.039468  -10.821218   -9.238034
 123 H   1.0000    0     1.008   -9.671346  -13.109484   -3.557610
 124 H   1.0000    0     1.008  -14.107452   -6.678294   -3.478967
 125 H   1.0000    0     1.008    2.334056   13.148397   -4.345682
 126 H   1.0000    0     1.008   -4.609972   15.436500   -3.594167
 127 H   1.0000    0     1.008   -4.406560   13.186957   -7.204666
 128 H   1.0000    0     1.008  -11.039300   13.132559   -3.586215
 129 H   1.0000    0     1.008  -10.538787    9.008538   -9.291732
 130 H   1.0000    0     1.008  -14.619135    1.455858   -7.428217
 131 H   1.0000    0     1.008  -12.716666    2.255747  -11.139338
 132 H   1.0000    0     1.008  -10.714677   -4.354564   -9.293074
 133 H   1.0000    0     1.008   -3.941103   -4.455324  -11.052613
 134 H   1.0000    0     1.008  -10.942624   -4.338473    9.036927
 135 H   1.0000    0     1.008  -12.987220    2.272250   10.829408
 136 H   1.0000    0     1.008  -14.783592    1.467994    7.071538
 137 H   1.0000    0     1.008  -14.515697    8.303920    7.165235
 138 H   1.0000    0     1.008  -10.767244    9.032851    9.023718
 139 H   1.0000    0     1.008  -11.127495   13.133472    3.288843
 140 H   1.0000    0     1.008   -4.590850   13.232802    7.065355
 141 H   1.0000    0     1.008   -4.703031   15.432711    3.422279
 142 H   1.0000    0     1.008    2.214209   13.198246    4.335181
 143 H   1.0000    0     1.008    1.987200    8.480293   11.139416
 144 H   1.0000    0     1.008    6.020050    7.118767   11.573199
 145 H   1.0000    0     1.008  -14.341710    8.299052   -7.532586
 146 H   1.0000    0     1.008   -4.235575   -4.468465   10.961330
 147 H   1.0000    0     1.008    2.193842    0.063019   13.978881
 148 H   1.0000    0     1.008   10.662823    0.503633   11.497071
 149 H   1.0000    0     1.008   10.094065   -8.120648   11.420966
 150 H   1.0000    0     1.008    6.757549   -7.012861   13.927495
 151 H   1.0000    0     1.008   10.225027   -8.108227    3.674142
 152 H   1.0000    0     1.008   14.829628    3.383577    4.527661
 153 H   1.0000    0     1.008   14.900595    3.358034   -4.247781
 154 H   1.0000    0     1.008   10.153584   10.047937   -4.380434
 155 H   1.0000    0     1.008    6.295090    7.056672  -11.429995
 156 H   1.0000    0     1.008    2.231313    8.448013  -11.103876
 157 H   1.0000    0     1.008    2.493917    0.023540  -13.917308
 158 H   1.0000    0     1.008   10.907167    0.504952  -11.241694
 159 H   1.0000    0     1.008    7.047751   -7.009977  -13.758833
 160 H   1.0000    0     1.008   10.348239   -8.135798  -11.185363
 161 H   1.0000    0     1.008   10.303486   -8.091102   -3.491554
 162 C   6.0000    0    12.011   -1.223057    1.783480   -0.327304
 163 C   6.0000    0    12.011   -2.549486    1.191344   -2.793195
 164 C   6.0000    0    12.011   -2.595669    0.693218    1.946854
 165 H   1.0000    0     1.008  -10.035538    1.360607   -0.699121
 166 C   6.0000    0    12.011   -5.487126    0.520140    1.808332
 167 C   6.0000    0    12.011   -6.981399    2.896136    1.434011
 168 C   6.0000    0    12.011   -9.186019    3.011044    0.194674
 169 H   1.0000    0     1.008  -10.257430    4.752911    0.051994
 170 H   1.0000    0     1.008   -6.239386    4.598063    2.331605
 171 H   1.0000    0     1.008   -5.940269   -0.268224    3.681349
 172 H   1.0000    0     1.008   -6.085549   -0.931472    0.457484
 173 H   1.0000    0     1.008   -2.076809    1.749055    3.644131
 174 H   1.0000    0     1.008   -1.935977   -1.238081    2.248347
 175 H   1.0000    0     1.008   -0.872316    3.800334   -0.122097
 176 H   1.0000    0     1.008   -4.385743    2.140602   -2.719941
 177 H   1.0000    0     1.008   -2.886768   -0.834718   -2.983862
 178 H   1.0000    0     1.008   -1.571959    1.938041   -4.443298

--------------------------------
INTERNAL COORDINATES (ANGSTROEM)
--------------------------------
 O     0   0   0   0.000000     0.000     0.000
 Al    1   0   0   1.874622     0.000     0.000
 O     2   1   0   1.716891   117.711     0.000
 Si    3   2   1   1.644629   134.839   226.797
 O     4   3   2   1.667691   115.493   309.763
 Si    5   4   3   1.612414   170.430   171.297
 O     6   5   4   1.615842   106.751   197.749
 Si    7   6   5   1.617164   159.326    43.441
 O     8   7   6   1.613332   108.759   233.062
 Si    9   8   7   1.607438   143.337    37.082
 O    10   9   8   1.600696   106.839    43.083
 Si   11  10   9   1.652810   158.798   112.151
 O    12  11  10   1.666891   105.534   121.615
 Si   13  12  11   1.611665   161.812    16.207
 O    14  13  12   1.627433   106.933   168.475
 Si   15  14  13   1.617636   151.034   313.047
 O    16  15  14   1.614963   108.455   291.042
 Si   17  16  15   1.616245   153.974     1.396
 O    18  17  16   1.609812   107.138   114.862
 Si   19  18  17   1.644497   150.757     0.226
 O    20  19  18   1.668058   106.924    73.128
 Si   21  20  19   1.623212   164.740    68.963
 O    22  21  20   1.615887   104.899   168.330
 Si   23  22  21   1.614558   157.440   319.702
 O    24  23  22   1.611031   106.169     8.566
 Si   25  24  23   1.642767   153.593   301.915
 O    26  25  24   1.637013   111.276   121.201
 Si   27  26  25   1.603059   138.929    15.809
 O    28  27  26   1.609309   108.665   255.843
 O    28  27  26   1.605881   118.203    20.953
 Si   30  28  27   1.646119   142.833   228.998
 O    31  30  28   1.644704   108.891   214.176
 Si   32  31  30   1.608196   149.853   146.589
 O    33  32  31   1.611019   109.194   288.974
 Si   34  33  32   1.617450   156.653   269.460
 O    35  34  33   1.607487   108.132   335.234
 Si   36  35  34   1.593271   156.178   231.951
 O    37  36  35   1.602936   108.007   189.985
 Si   38  37  36   1.606602   154.489   209.520
 O    39  38  37   1.596278   110.085   111.765
 Si   40  39  38   1.594805   152.834   294.299
 O    41  40  39   1.608238   110.093    65.772
 Si   42  41  40   1.602691   154.494   246.746
 O    43  42  41   1.594713   108.355   153.062
 O    16  15  14   1.619506   106.556    43.531
 O    31  30  28   1.639878   104.978    97.005
 Si   46  31  30   1.596875   162.277    95.579
 O    47  46  31   1.605919   108.766   260.923
 O    18  17  16   1.607102   106.790   357.762
 Si   49  18  17   1.614969   151.093    76.530
 O    14  13  12   1.617814   107.416    53.798
 O    50  49  18   1.605751   109.092    43.665
 O     4   3   2   1.650977   113.363    74.363
 Si   53   4   3   1.605416   161.360   300.743
 O    54  53   4   1.610742   109.105   100.040
 Si   55  54  53   1.600938   150.063    46.186
 O    56  55  54   1.612984   109.898   311.820
 O    54  53   4   1.608312   105.177   342.995
 Si   58  54  53   1.603302   155.491   294.192
 O    59  58  54   1.621558   105.471   341.538
 Si   60  59  58   1.610329   152.822    90.726
 O    61  60  59   1.616465   109.161   340.425
 O    59  58  54   1.615178   118.723    97.342
 Si   63  59  58   1.665861   144.863    24.030
 O    64  63  59   1.648284   103.982   344.638
 O    59  58  54   1.607290   109.455   221.364
 Si   66  59  58   1.602427   145.568   145.273
 O    67  66  59   1.607302   107.850   137.211
 Si   68  67  66   1.607248   141.704   306.452
 O    69  68  67   1.614497   109.328    14.679
 Si   70  69  68   1.616835   153.420   224.239
 O    71  70  69   1.602530   110.430   181.352
 O     8   7   6   1.608677   106.879   348.930
 O    35  34  33   1.595400   112.255    92.232
 O    12  11  10   1.627245   112.495   254.010
 O    39  38  37   1.602619   108.757   231.687
 Si   76  39  38   1.598541   145.740    77.339
 O    77  76  39   1.599790   107.326   203.827
 Si   78  77  76   1.600850   148.750   216.798
 O    79  78  77   1.603857   107.939   187.112
 Si   80  79  78   1.609519   144.780   207.731
 O    81  80  79   1.616049   108.563    66.620
 Si   82  81  80   1.608036   140.953   197.975
 O    83  82  81   1.608566   111.403   212.484
 Si   84  83  82   1.607388   151.390   204.537
 O    85  84  83   1.625170   107.397   274.750
 Si   86  85  84   1.627172   148.791    20.391
 O    87  86  85   1.600808   106.962   344.089
 Si   88  87  86   1.603071   158.330    83.608
 O    83  82  81   1.623935   109.942   331.903
 O    81  80  79   1.592600   112.884   187.285
 O    56  55  54   1.611886   109.117   199.425
 Si   92  56  55   1.599458   154.575   184.380
 O    93  92  56   1.602660   110.449   139.147
 Si   94  93  92   1.604964   145.478   216.531
 O    95  94  93   1.605008   107.425   218.777
 Si   96  95  94   1.608235   141.686    53.232
 O    97  96  95   1.616004   109.518   345.535
 Si   98  97  96   1.614473   153.827   136.779
 O    99  98  97   1.603405   108.441    61.529
 Si  100  99  98   1.598385   156.209   268.810
 O   101 100  99   1.609583   111.690   255.137
 Si  102 101 100   1.605391   144.706   172.906
 O   103 102 101   1.600707   107.693   153.144
 Si  104 103 102   1.600916   148.689   173.149
 O   105 104 103   1.597876   107.196   143.790
 O    93  92  56   1.620032   106.718    16.821
 Si  107  93  92   1.611210   151.405   269.398
 O   108 107  93   1.622276   108.957    20.362
 O    93  92  56   1.617933   116.161   263.140
 O    89  88  87   1.602239   110.937   160.032
 O    85  84  83   1.610014   110.116   155.864
 O    99  98  97   1.601605   109.916   179.686
 O    87  86  85   1.603737   106.892   225.539
 H    83  82  81   1.355598   110.043    90.236
 H    14  13  12   1.369768   115.750   290.967
 H    67  66  59   1.326007   107.746   255.659
 H    67  66  59   1.371178   108.538    20.503
 H    69  68  67   1.366691   108.988   256.965
 H    89  88  87   1.367918   109.153    36.194
 H    95  94  93   1.371538   107.345   335.073
 H    95  94  93   1.326352   107.990    99.587
 H    97  96  95   1.364022   108.687   102.357
 H    87  86  85   1.365604   110.946   103.514
 H    85  84  83   1.363259   111.237    32.084
 H    33  32  31   1.371207   110.751    53.491
 H    43  42  41   1.372467   110.001    36.848
 H    43  42  41   1.371046   108.881   275.673
 H    41  40  39   1.374481   109.894   307.169
 H   105 104 103   1.366932   111.237   264.204
 H   103 102 101   1.379911   112.230    31.265
 H   103 102 101   1.368963   109.185   269.459
 H   101 100  99   1.373203   108.740    16.159
 H    99  98  97   1.367197   109.649   299.713
 H    81  80  79   1.368523   109.411   307.287
 H    79  78  77   1.366424   107.437   304.458
 H    79  78  77   1.380907   110.357    63.888
 H    77  76  39   1.368903   107.157    85.830
 H    77  76  39   1.365895   110.335   325.449
 H    39  38  37   1.371943   107.677   352.212
 H    37  36  35   1.370925   114.055   311.175
 H    37  36  35   1.371151   105.229    72.424
 H    35  34  33   1.354191   111.801   213.566
 H    10   9   8   1.350660   108.610   165.079
 H    10   9   8   1.351407   108.580   289.352
 H   105 104 103   1.370534   109.910    26.877
 H    71  70  69   1.363990   109.721    57.526
 H     8   7   6   1.336248   110.323   113.896
 H     6   5   4   1.377289   114.517    77.718
 H    61  60  59   1.362829   105.497   222.364
 H    61  60  59   1.373215   107.833   101.068
 H    54  53   4   1.364824   108.567   218.352
 H    50  49  18   1.323035   110.887   162.739
 H    18  17  16   1.328228   110.893   235.594
 H    16  15  14   1.369980   112.044   171.882
 H    47  46  31   1.336872   103.728   146.140
 H    47  46  31   1.333676   110.491    19.716
 H    24  23  22   1.324067   110.740   245.483
 H    22  21  20   1.380781   116.390   286.399
 H   108 107  93   1.376569   107.839   259.576
 H   108 107  93   1.360704   104.538   138.117
 H    56  55  54   1.364241   110.985    71.875
 C     1   2   3   1.552074   117.306   204.585
 C   163   1   2   1.514469   111.792   186.708
 C   163   1   2   1.519442   105.584   309.319
 H   112  85  84   3.437541   107.168   345.651
 C   165 163   1   1.534583   117.482   205.414
 C   167 165 163   1.498452   118.842   300.435
 C   166 112  85   1.090220   159.955   133.401
 H   169 166 112   1.084797   115.785   116.285
 H   168 167 165   1.091288   116.428   325.121
 H   167 165 163   1.101788   101.340   181.416
 H   167 165 163   1.096059   111.165    70.296
 H   165 163   1   1.092819   109.676    80.704
 H   165 163   1   1.091697   108.563   325.127
 H   163   1   2   1.088721   102.850    66.876
 H   164 163   1   1.094552   106.618   182.634
 H   164 163   1   1.091574   111.017    65.248
 H   164 163   1   1.089123   113.304   299.426

---------------------------
INTERNAL COORDINATES (A.U.)
---------------------------
 O     0   0   0   0.000000     0.000     0.000
 Al    1   0   0   3.542523     0.000     0.000
 O     2   1   0   3.244455   117.711     0.000
 Si    3   2   1   3.107899   134.839   226.797
 O     4   3   2   3.151479   115.493   309.763
 Si    5   4   3   3.047020   170.430   171.297
 O     6   5   4   3.053499   106.751   197.749
 Si    7   6   5   3.055998   159.326    43.441
 O     8   7   6   3.048756   108.759   233.062
 Si    9   8   7   3.037618   143.337    37.082
 O    10   9   8   3.024877   106.839    43.083
 Si   11  10   9   3.123359   158.798   112.151
 O    12  11  10   3.149968   105.534   121.615
 Si   13  12  11   3.045606   161.812    16.207
 O    14  13  12   3.075402   106.933   168.475
 Si   15  14  13   3.056889   151.034   313.047
 O    16  15  14   3.051838   108.455   291.042
 Si   17  16  15   3.054261   153.974     1.396
 O    18  17  16   3.042104   107.138   114.862
 Si   19  18  17   3.107648   150.757     0.226
 O    20  19  18   3.152173   106.924    73.128
 Si   21  20  19   3.067427   164.740    68.963
 O    22  21  20   3.053584   104.899   168.330
 Si   23  22  21   3.051072   157.440   319.702
 O    24  23  22   3.044407   106.169     8.566
 Si   25  24  23   3.104379   153.593   301.915
 O    26  25  24   3.093506   111.276   121.201
 Si   27  26  25   3.029343   138.929    15.809
 O    28  27  26   3.041153   108.665   255.843
 O    28  27  26   3.034675   118.203    20.953
 Si   30  28  27   3.110714   142.833   228.998
 O    31  30  28   3.108039   108.891   214.176
 Si   32  31  30   3.039050   149.853   146.589
 O    33  32  31   3.044385   109.194   288.974
 Si   34  33  32   3.056537   156.653   269.460
 O    35  34  33   3.037710   108.132   335.234
 Si   36  35  34   3.010846   156.178   231.951
 O    37  36  35   3.029109   108.007   189.985
 Si   38  37  36   3.036038   154.489   209.520
 O    39  38  37   3.016528   110.085   111.765
 Si   40  39  38   3.013744   152.834   294.299
 O    41  40  39   3.039129   110.093    65.772
 Si   42  41  40   3.028646   154.494   246.746
 O    43  42  41   3.013570   108.355   153.062
 O    16  15  14   3.060423   106.556    43.531
 O    31  30  28   3.098920   104.978    97.005
 Si   46  31  30   3.017656   162.277    95.579
 O    47  46  31   3.034748   108.766   260.923
 O    18  17  16   3.036982   106.790   357.762
 Si   49  18  17   3.051848   151.093    76.530
 O    14  13  12   3.057225   107.416    53.798
 O    50  49  18   3.034431   109.092    43.665
 O     4   3   2   3.119894   113.363    74.363
 Si   53   4   3   3.033796   161.360   300.743
 O    54  53   4   3.043860   109.105   100.040
 Si   55  54  53   3.025334   150.063    46.186
 O    56  55  54   3.048097   109.898   311.820
 O    54  53   4   3.039270   105.177   342.995
 Si   58  54  53   3.029802   155.491   294.192
 O    59  58  54   3.064301   105.471   341.538
 Si   60  59  58   3.043080   152.822    90.726
 O    61  60  59   3.054676   109.161   340.425
 O    59  58  54   3.052244   118.723    97.342
 Si   63  59  58   3.148020   144.863    24.030
 O    64  63  59   3.114805   103.982   344.638
 O    59  58  54   3.037337   109.455   221.364
 Si   66  59  58   3.028148   145.568   145.273
 O    67  66  59   3.037360   107.850   137.211
 Si   68  67  66   3.037259   141.704   306.452
 O    69  68  67   3.050956   109.328    14.679
 Si   70  69  68   3.055375   153.420   224.239
 O    71  70  69   3.028343   110.430   181.352
 O     8   7   6   3.039958   106.879   348.930
 O    35  34  33   3.014870   112.255    92.232
 O    12  11  10   3.075047   112.495   254.010
 O    39  38  37   3.028512   108.757   231.687
 Si   76  39  38   3.020805   145.740    77.339
 O    77  76  39   3.023166   107.326   203.827
 Si   78  77  76   3.025168   148.750   216.798
 O    79  78  77   3.030851   107.939   187.112
 Si   80  79  78   3.041550   144.780   207.731
 O    81  80  79   3.053889   108.563    66.620
 Si   82  81  80   3.038748   140.953   197.975
 O    83  82  81   3.039750   111.403   212.484
 Si   84  83  82   3.037522   151.390   204.537
 O    85  84  83   3.071126   107.397   274.750
 Si   86  85  84   3.074910   148.791    20.391
 O    87  86  85   3.025089   106.962   344.089
 Si   88  87  86   3.029365   158.330    83.608
 O    83  82  81   3.068793   109.942   331.903
 O    81  80  79   3.009578   112.884   187.285
 O    56  55  54   3.046024   109.117   199.425
 Si   92  56  55   3.022537   154.575   184.380
 O    93  92  56   3.028588   110.449   139.147
 Si   94  93  92   3.032943   145.478   216.531
 O    95  94  93   3.033025   107.425   218.777
 Si   96  95  94   3.039124   141.686    53.232
 O    97  96  95   3.053806   109.518   345.535
 Si   98  97  96   3.050912   153.827   136.779
 O    99  98  97   3.029996   108.441    61.529
 Si  100  99  98   3.020510   156.209   268.810
 O   101 100  99   3.041671   111.690   255.137
 Si  102 101 100   3.033749   144.706   172.906
 O   103 102 101   3.024899   107.693   153.144
 Si  104 103 102   3.025294   148.689   173.149
 O   105 104 103   3.019549   107.196   143.790
 O    93  92  56   3.061417   106.718    16.821
 Si  107  93  92   3.044745   151.405   269.398
 O   108 107  93   3.065656   108.957    20.362
 O    93  92  56   3.057451   116.161   263.140
 O    89  88  87   3.027793   110.937   160.032
 O    85  84  83   3.042486   110.116   155.864
 O    99  98  97   3.026596   109.916   179.686
 O    87  86  85   3.030623   106.892   225.539
 H    83  82  81   2.561709   110.043    90.236
 H    14  13  12   2.588486   115.750   290.967
 H    67  66  59   2.505790   107.746   255.659
 H    67  66  59   2.591150   108.538    20.503
 H    69  68  67   2.582671   108.988   256.965
 H    89  88  87   2.584990   109.153    36.194
 H    95  94  93   2.591831   107.345   335.073
 H    95  94  93   2.506443   107.990    99.587
 H    97  96  95   2.577628   108.687   102.357
 H    87  86  85   2.580618   110.946   103.514
 H    85  84  83   2.576186   111.237    32.084
 H    33  32  31   2.591206   110.751    53.491
 H    43  42  41   2.593587   110.001    36.848
 H    43  42  41   2.590902   108.881   275.673
 H    41  40  39   2.597394   109.894   307.169
 H   105 104 103   2.583128   111.237   264.204
 H   103 102 101   2.607653   112.230    31.265
 H   103 102 101   2.586965   109.185   269.459
 H   101 100  99   2.594978   108.740    16.159
 H    99  98  97   2.583627   109.649   299.713
 H    81  80  79   2.586133   109.411   307.287
 H    79  78  77   2.582167   107.437   304.458
 H    79  78  77   2.609537   110.357    63.888
 H    77  76  39   2.586852   107.157    85.830
 H    77  76  39   2.581168   110.335   325.449
 H    39  38  37   2.592596   107.677   352.212
 H    37  36  35   2.590673   114.055   311.175
 H    37  36  35   2.591100   105.229    72.424
 H    35  34  33   2.559050   111.801   213.566
 H    10   9   8   2.552377   108.610   165.079
 H    10   9   8   2.553788   108.580   289.352
 H   105 104 103   2.589933   109.910    26.877
 H    71  70  69   2.577568   109.721    57.526
 H     8   7   6   2.525142   110.323   113.896
 H     6   5   4   2.602699   114.517    77.718
 H    61  60  59   2.575373   105.497   222.364
 H    61  60  59   2.595000   107.833   101.068
 H    54  53   4   2.579143   108.567   218.352
 H    50  49  18   2.500174   110.887   162.739
 H    18  17  16   2.509986   110.893   235.594
 H    16  15  14   2.588886   112.044   171.882
 H    47  46  31   2.526322   103.728   146.140
 H    47  46  31   2.520283   110.491    19.716
 H    24  23  22   2.502124   110.740   245.483
 H    22  21  20   2.609299   116.390   286.399
 H   108 107  93   2.601338   107.839   259.576
 H   108 107  93   2.571358   104.538   138.117
 H    56  55  54   2.578041   110.985    71.875
 C     1   2   3   2.932996   117.306   204.585
 C   163   1   2   2.861932   111.792   186.708
 C   163   1   2   2.871330   105.584   309.319
 H   112  85  84   6.496012   107.168   345.651
 C   165 163   1   2.899943   117.482   205.414
 C   167 165 163   2.831665   118.842   300.435
 C   166 112  85   2.060218   159.955   133.401
 H   169 166 112   2.049970   115.785   116.285
 H   168 167 165   2.062235   116.428   325.121
 H   167 165 163   2.082078   101.340   181.416
 H   167 165 163   2.071250   111.165    70.296
 H   165 163   1   2.065128   109.676    80.704
 H   165 163   1   2.063009   108.563   325.127
 H   163   1   2   2.057384   102.850    66.876
 H   164 163   1   2.068404   106.618   182.634
 H   164 163   1   2.062775   111.017    65.248
 H   164 163   1   2.058144   113.304   299.426

---------------------
BASIS SET INFORMATION
---------------------
There are 5 groups of distinct atoms

 Group   1 Type O  : 11s5p1d contracted to 4s3p1d pattern {6311/311/1}
 Group   2 Type Al : 17s11p1d contracted to 5s4p1d pattern {66311/6311/1}
 Group   3 Type Si : 17s11p1d contracted to 5s4p1d pattern {66311/6311/1}
 Group   4 Type H  : 4s contracted to 2s pattern {31}
 Group   5 Type C  : 11s5p1d contracted to 4s3p1d pattern {6311/311/1}

Atom   0O   basis set group =>   1
Atom   1Al  basis set group =>   2
Atom   2O   basis set group =>   1
Atom   3Si  basis set group =>   3
Atom   4O   basis set group =>   1
Atom   5Si  basis set group =>   3
Atom   6O   basis set group =>   1
Atom   7Si  basis set group =>   3
Atom   8O   basis set group =>   1
Atom   9Si  basis set group =>   3
Atom  10O   basis set group =>   1
Atom  11Si  basis set group =>   3
Atom  12O   basis set group =>   1
Atom  13Si  basis set group =>   3
Atom  14O   basis set group =>   1
Atom  15Si  basis set group =>   3
Atom  16O   basis set group =>   1
Atom  17Si  basis set group =>   3
Atom  18O   basis set group =>   1
Atom  19Si  basis set group =>   3
Atom  20O   basis set group =>   1
Atom  21Si  basis set group =>   3
Atom  22O   basis set group =>   1
Atom  23Si  basis set group =>   3
Atom  24O   basis set group =>   1
Atom  25Si  basis set group =>   3
Atom  26O   basis set group =>   1
Atom  27Si  basis set group =>   3
Atom  28O   basis set group =>   1
Atom  29O   basis set group =>   1
Atom  30Si  basis set group =>   3
Atom  31O   basis set group =>   1
Atom  32Si  basis set group =>   3
Atom  33O   basis set group =>   1
Atom  34Si  basis set group =>   3
Atom  35O   basis set group =>   1
Atom  36Si  basis set group =>   3
Atom  37O   basis set group =>   1
Atom  38Si  basis set group =>   3
Atom  39O   basis set group =>   1
Atom  40Si  basis set group =>   3
Atom  41O   basis set group =>   1
Atom  42Si  basis set group =>   3
Atom  43O   basis set group =>   1
Atom  44O   basis set group =>   1
Atom  45O   basis set group =>   1
Atom  46Si  basis set group =>   3
Atom  47O   basis set group =>   1
Atom  48O   basis set group =>   1
Atom  49Si  basis set group =>   3
Atom  50O   basis set group =>   1
Atom  51O   basis set group =>   1
Atom  52O   basis set group =>   1
Atom  53Si  basis set group =>   3
Atom  54O   basis set group =>   1
Atom  55Si  basis set group =>   3
Atom  56O   basis set group =>   1
Atom  57O   basis set group =>   1
Atom  58Si  basis set group =>   3
Atom  59O   basis set group =>   1
Atom  60Si  basis set group =>   3
Atom  61O   basis set group =>   1
Atom  62O   basis set group =>   1
Atom  63Si  basis set group =>   3
Atom  64O   basis set group =>   1
Atom  65O   basis set group =>   1
Atom  66Si  basis set group =>   3
Atom  67O   basis set group =>   1
Atom  68Si  basis set group =>   3
Atom  69O   basis set group =>   1
Atom  70Si  basis set group =>   3
Atom  71O   basis set group =>   1
Atom  72O   basis set group =>   1
Atom  73O   basis set group =>   1
Atom  74O   basis set group =>   1
Atom  75O   basis set group =>   1
Atom  76Si  basis set group =>   3
Atom  77O   basis set group =>   1
Atom  78Si  basis set group =>   3
Atom  79O   basis set group =>   1
Atom  80Si  basis set group =>   3
Atom  81O   basis set group =>   1
Atom  82Si  basis set group =>   3
Atom  83O   basis set group =>   1
Atom  84Si  basis set group =>   3
Atom  85O   basis set group =>   1
Atom  86Si  basis set group =>   3
Atom  87O   basis set group =>   1
Atom  88Si  basis set group =>   3
Atom  89O   basis set group =>   1
Atom  90O   basis set group =>   1
Atom  91O   basis set group =>   1
Atom  92Si  basis set group =>   3
Atom  93O   basis set group =>   1
Atom  94Si  basis set group =>   3
Atom  95O   basis set group =>   1
Atom  96Si  basis set group =>   3
Atom  97O   basis set group =>   1
Atom  98Si  basis set group =>   3
Atom  99O   basis set group =>   1
Atom 100Si  basis set group =>   3
Atom 101O   basis set group =>   1
Atom 102Si  basis set group =>   3
Atom 103O   basis set group =>   1
Atom 104Si  basis set group =>   3
Atom 105O   basis set group =>   1
Atom 106O   basis set group =>   1
Atom 107Si  basis set group =>   3
Atom 108O   basis set group =>   1
Atom 109O   basis set group =>   1
Atom 110O   basis set group =>   1
Atom 111O   basis set group =>   1
Atom 112O   basis set group =>   1
Atom 113O   basis set group =>   1
Atom 114H   basis set group =>   4
Atom 115H   basis set group =>   4
Atom 116H   basis set group =>   4
Atom 117H   basis set group =>   4
Atom 118H   basis set group =>   4
Atom 119H   basis set group =>   4
Atom 120H   basis set group =>   4
Atom 121H   basis set group =>   4
Atom 122H   basis set group =>   4
Atom 123H   basis set group =>   4
Atom 124H   basis set group =>   4
Atom 125H   basis set group =>   4
Atom 126H   basis set group =>   4
Atom 127H   basis set group =>   4
Atom 128H   basis set group =>   4
Atom 129H   basis set group =>   4
Atom 130H   basis set group =>   4
Atom 131H   basis set group =>   4
Atom 132H   basis set group =>   4
Atom 133H   basis set group =>   4
Atom 134H   basis set group =>   4
Atom 135H   basis set group =>   4
Atom 136H   basis set group =>   4
Atom 137H   basis set group =>   4
Atom 138H   basis set group =>   4
Atom 139H   basis set group =>   4
Atom 140H   basis set group =>   4
Atom 141H   basis set group =>   4
Atom 142H   basis set group =>   4
Atom 143H   basis set group =>   4
Atom 144H   basis set group =>   4
Atom 145H   basis set group =>   4
Atom 146H   basis set group =>   4
Atom 147H   basis set group =>   4
Atom 148H   basis set group =>   4
Atom 149H   basis set group =>   4
Atom 150H   basis set group =>   4
Atom 151H   basis set group =>   4
Atom 152H   basis set group =>   4
Atom 153H   basis set group =>   4
Atom 154H   basis set group =>   4
Atom 155H   basis set group =>   4
Atom 156H   basis set group =>   4
Atom 157H   basis set group =>   4
Atom 158H   basis set group =>   4
Atom 159H   basis set group =>   4
Atom 160H   basis set group =>   4
Atom 161H   basis set group =>   4
Atom 162C   basis set group =>   5
Atom 163C   basis set group =>   5
Atom 164C   basis set group =>   5
Atom 165H   basis set group =>   4
Atom 166C   basis set group =>   5
Atom 167C   basis set group =>   5
Atom 168C   basis set group =>   5
Atom 169H   basis set group =>   4
Atom 170H   basis set group =>   4
Atom 171H   basis set group =>   4
Atom 172H   basis set group =>   4
Atom 173H   basis set group =>   4
Atom 174H   basis set group =>   4
Atom 175H   basis set group =>   4
Atom 176H   basis set group =>   4
Atom 177H   basis set group =>   4
Atom 178H   basis set group =>   4
------------------------------------------------------------------------------
                           ORCA GTO INTEGRAL CALCULATION
------------------------------------------------------------------------------

                         BASIS SET STATISTICS AND STARTUP INFO

 # of primitive gaussian shells          ... 2828
 # of primitive gaussian functions       ... 5060
 # of contracted shell                   ... 1170
 # of contracted basis functions         ... 2462
 Highest angular momentum                ...    2
 Maximum contraction depth               ...    6
 Integral threshhold             Thresh  ...  1.000e-10
 Primitive cut-off               TCut    ...  1.000e-11


                              INTEGRAL EVALUATION

 One electron integrals                  ... done
 Pre-screening matrix                    ... done
 Shell pair data                         ... done (   0.369 sec)

-------------------------------------------------------------------------------
                                 ORCA SCF
-------------------------------------------------------------------------------

------------
SCF SETTINGS
------------
Hamiltonian:
 Density Functional     Method          .... DFT(GTOs)
 Exchange Functional    Exchange        .... B88
   X-Alpha parameter    XAlpha          ....  0.666667
   Becke's b parameter  XBeta           ....  0.004200
 Correlation Functional Correlation     .... LYP
 LDA part of GGA corr.  LDAOpt          .... VWN-3
 Gradients option       PostSCFGGA      .... off
 Hybrid DFT is turned on
   Fraction HF Exchange ScalHFX         ....  0.200000
   Scaling of DF-GGA-X  ScalDFX         ....  0.720000
   Scaling of DF-GGA-C  ScalDFC         ....  0.810000
   Scaling of DF-LDA-C  ScalLDAC        ....  1.000000
   Perturbative correction              ....  0.000000


General Settings:
 Integral files         IntName         .... R_b3lyp-d
 Hartree-Fock type      HFTyp           .... RHF
 Total Charge           Charge          ....    0
 Multiplicity           Mult            ....    1
 Number of Electrons    NEL             .... 1282
 Basis Dimension        Dim             .... 2462
 Nuclear Repulsion      ENuc            ....  61629.9879409267 Eh

Convergence Acceleration:
 DIIS                   CNVDIIS         .... on
   Start iteration      DIISMaxIt       ....    12
   Startup error        DIISStart       ....  0.200000
   # of expansion vecs  DIISMaxEq       ....     5
   Bias factor          DIISBfac        ....   1.050
   Max. coefficient     DIISMaxC        ....  10.000
 Newton-Raphson         CNVNR           .... off
 SOSCF                  CNVSOSCF        .... off
 Level Shifting         CNVShift        .... on
   Level shift para.    LevelShift      ....    0.2500
   Turn off err/grad.   ShiftErr        ....    0.0010
 Zerner damping         CNVZerner       .... off
 Static damping         CNVDamp         .... on
   Fraction old density DampFac         ....    0.7000
   Max. Damping (<1)    DampMax         ....    0.9800
   Min. Damping (>=0)   DampMin         ....    0.0000
   Turn off err/grad.   DampErr         ....    0.1000
 Fernandez-Rico         CNVRico         .... off

SCF Procedure:
 Maximum # iterations   MaxIter         ....     0
 SCF integral mode      SCFMode         .... Direct
 Reset frequeny         DirectResetFreq ....    20
 Integral Threshold     Thresh          ....  1.000e-10 Eh
 Primitive CutOff       TCut            ....  1.000e-11 Eh

Convergence Tolerance:
 Convergence Check Mode ConvCheckMode   .... Total+1el-Energy
 Energy Change          TolE            ....  1.000e-06 Eh
 1-El. energy change                    ....  1.000e-03 Eh
 DIIS Error             TolErr          ....  3.000e-06


Diagonalization of the overlap matrix:
Smallest eigenvalue                        ... 4.695e-07
Time for diagonalization                   ...  132.965 sec
Time for construction of square roots      ...   18.695 sec
Total time needed                          ...  151.700 sec

-------------------
DFT GRID GENERATION
-------------------

General Integration Accuracy     IntAcc      ...  4.340
Radial Grid Type                 RadialGrid  ... Gauss-Chebyshev
Angular Grid (max. acc.)         AngularGrid ... Lebedev-110
Angular grid pruning method      GridPruning ... 3 (G Style)
Weight generation scheme         WeightScheme... Becke
Basis function cutoff            BFCut       ...    1.0000e-10
Integration weight cutoff        WCut        ...    1.0000e-14
Grids for H and He will be reduced by one unit

# of grid points (after initial pruning)     ... 259306 (  12.7 sec)
# of grid points (after weights+screening)   ... 222521 ( 100.7 sec)
Reduced shell lists constructed in  105.6 sec

Total number of grid points                  ...   222521
Total number of batches                      ...     2864
Average number of points per batch           ...       77
Average number of grid points per atom       ...     1243
Average number of shells per batch           ...   355.42 (30.38%)
Average number of basis functions per batch  ...   738.55 (30.00%)
Average number of large shells per batch     ...   185.21 (52.11%)
Average number of large basis fcns per batch ...   393.49 (53.28%)

Time for grid setup =  219.049 sec

------------------------------
INITIAL GUESS: MODEL POTENTIAL
------------------------------
Loading Hartree-Fock densities                     ... done
Calculating cut-offs                               ... done
Setting up the integral package                    ... done
Initializing the effective Hamiltonian             ... done
Starting the Coulomb interaction                   ... done ( 179.8 sec)
Starting the XC term evaluation                    ... done ( 551.3 sec)
  promolecular density results
     # of electrons  =   1282.006966418
     EX              =  -1543.328818766
     EC              =    -49.807056875
     EX+EC           =  -1593.135875641
Transforming the Hamiltonian                       ... done (  13.0 sec)
Diagonalizing the Hamiltonian                      ... done ( 161.7 sec)
Back transforming the eigenvectors                 ... done (   9.2 sec)
Now organizing SCF variables                       ... done
                      ------------------
                      INITIAL GUESS DONE ( 873.5 sec)
                      ------------------

     ****MaxIter==0 has been chosen - skipping the SCF****

!!!!!!!!!!!!!!!!!!!!!!!!!!!!!!!!!!!!!!!!!!!!!!!!!!!!!!!!!!!
!! SERIOUS WARNING: The orbitals and populations did NOT !!
!!                  come from a CONVERGED calculation    !!
!!!!!!!!!!!!!!!!!!!!!!!!!!!!!!!!!!!!!!!!!!!!!!!!!!!!!!!!!!!

THE WAVEFUNCTION AND DENSITY WILL STILL BE STORED BUT BE CAREFUL
MAKE SURE THAT WHAT YOU INPUT MAKES ACTUALLY SENSE!

             **** DENSITY FILE WAS UPDATED (R_b3lyp-d.scfp.tmp) ****
----------------
ORBITAL ENERGIES
----------------

  NO   OCC          E(Eh)            E(eV)
   0   2.0000     -65.527509     -1783.0942
   1   2.0000     -65.526686     -1783.0718
   2   2.0000     -65.526663     -1783.0711
   3   2.0000     -65.526273     -1783.0605
   4   2.0000     -65.525734     -1783.0459
   5   2.0000     -65.525618     -1783.0427
   6   2.0000     -65.525300     -1783.0341
   7   2.0000     -65.525210     -1783.0316
   8   2.0000     -65.525195     -1783.0312
   9   2.0000     -65.525108     -1783.0288
  10   2.0000     -65.524365     -1783.0086
  11   2.0000     -65.524207     -1783.0043
  12   2.0000     -65.523417     -1782.9828
  13   2.0000     -65.523140     -1782.9753
  14   2.0000     -65.522999     -1782.9715
  15   2.0000     -65.522756     -1782.9648
  16   2.0000     -65.522709     -1782.9636
  17   2.0000     -65.522683     -1782.9629
  18   2.0000     -65.522623     -1782.9612
  19   2.0000     -65.522563     -1782.9596
  20   2.0000     -65.522559     -1782.9595
  21   2.0000     -65.522498     -1782.9578
  22   2.0000     -65.522443     -1782.9563
  23   2.0000     -65.522406     -1782.9553
  24   2.0000     -65.522377     -1782.9545
  25   2.0000     -65.522306     -1782.9526
  26   2.0000     -65.522170     -1782.9489
  27   2.0000     -65.522090     -1782.9467
  28   2.0000     -65.522011     -1782.9446
  29   2.0000     -65.521942     -1782.9427
  30   2.0000     -65.521938     -1782.9426
  31   2.0000     -65.521913     -1782.9419
  32   2.0000     -65.521108     -1782.9200
  33   2.0000     -65.520978     -1782.9165
  34   2.0000     -65.520490     -1782.9032
  35   2.0000     -65.520207     -1782.8955
  36   2.0000     -65.519620     -1782.8795
  37   2.0000     -65.519090     -1782.8651
  38   2.0000     -65.518921     -1782.8605
  39   2.0000     -65.517090     -1782.8107
  40   2.0000     -65.516955     -1782.8070
  41   2.0000     -65.516363     -1782.7909
  42   2.0000     -65.516225     -1782.7871
  43   2.0000     -65.515680     -1782.7723
  44   2.0000     -65.515278     -1782.7613
  45   2.0000     -55.462969     -1509.2241
  46   2.0000     -19.067840      -518.8623
  47   2.0000     -19.067430      -518.8511
  48   2.0000     -19.065924      -518.8102
  49   2.0000     -19.065826      -518.8075
  50   2.0000     -19.065741      -518.8052
  51   2.0000     -19.065695      -518.8039
  52   2.0000     -19.065651      -518.8027
  53   2.0000     -19.065505      -518.7988
  54   2.0000     -19.065499      -518.7986
  55   2.0000     -19.065212      -518.7908
  56   2.0000     -19.064242      -518.7644
  57   2.0000     -19.064018      -518.7583
  58   2.0000     -19.063929      -518.7559
  59   2.0000     -19.063827      -518.7531
  60   2.0000     -19.063798      -518.7523
  61   2.0000     -19.063715      -518.7501
  62   2.0000     -19.063526      -518.7449
  63   2.0000     -19.063491      -518.7440
  64   2.0000     -19.063388      -518.7412
  65   2.0000     -19.063202      -518.7361
  66   2.0000     -19.063123      -518.7339
  67   2.0000     -19.063005      -518.7307
  68   2.0000     -19.062867      -518.7270
  69   2.0000     -19.062764      -518.7242
  70   2.0000     -19.062757      -518.7240
  71   2.0000     -19.062495      -518.7169
  72   2.0000     -19.061357      -518.6859
  73   2.0000     -19.061138      -518.6799
  74   2.0000     -19.060983      -518.6757
  75   2.0000     -19.060934      -518.6744
  76   2.0000     -19.059947      -518.6475
  77   2.0000     -19.059843      -518.6447
  78   2.0000     -19.059702      -518.6408
  79   2.0000     -19.059620      -518.6386
  80   2.0000     -19.059419      -518.6332
  81   2.0000     -19.059386      -518.6323
  82   2.0000     -19.059298      -518.6299
  83   2.0000     -19.059070      -518.6237
  84   2.0000     -19.058785      -518.6159
  85   2.0000     -19.058362      -518.6044
  86   2.0000     -19.058305      -518.6029
  87   2.0000     -19.057785      -518.5887
  88   2.0000     -19.056968      -518.5665
  89   2.0000     -19.056507      -518.5539
  90   2.0000     -19.056468      -518.5529
  91   2.0000     -19.055914      -518.5378
  92   2.0000     -19.055839      -518.5357
  93   2.0000     -19.055560      -518.5282
  94   2.0000     -19.055436      -518.5248
  95   2.0000     -19.055433      -518.5247
  96   2.0000     -19.055403      -518.5239
  97   2.0000     -19.055392      -518.5236
  98   2.0000     -19.055309      -518.5213
  99   2.0000     -19.055016      -518.5133
 100   2.0000     -19.054712      -518.5051
 101   2.0000     -19.054644      -518.5032
 102   2.0000     -19.053439      -518.4704
 103   2.0000     -19.053216      -518.4644
 104   2.0000     -19.052967      -518.4576
 105   2.0000     -19.052725      -518.4510
 106   2.0000     -19.051731      -518.4240
 107   2.0000     -19.051665      -518.4222
 108   2.0000     -19.050708      -518.3961
 109   2.0000     -19.050403      -518.3878
 110   2.0000     -19.050384      -518.3873
 111   2.0000     -19.050255      -518.3838
 112   2.0000     -19.048112      -518.3255
 113   2.0000     -19.040583      -518.1206
 114   2.0000     -10.115563      -275.2585
 115   2.0000     -10.110349      -275.1166
 116   2.0000     -10.108701      -275.0717
 117   2.0000     -10.107830      -275.0480
 118   2.0000     -10.105835      -274.9937
 119   2.0000     -10.094247      -274.6784
 120   2.0000      -5.129071      -139.5691
 121   2.0000      -5.128019      -139.5405
 122   2.0000      -5.127988      -139.5397
 123   2.0000      -5.127522      -139.5270
 124   2.0000      -5.126854      -139.5088
 125   2.0000      -5.126713      -139.5049
 126   2.0000      -5.126350      -139.4951
 127   2.0000      -5.126217      -139.4915
 128   2.0000      -5.126173      -139.4903
 129   2.0000      -5.126046      -139.4868
 130   2.0000      -5.125136      -139.4620
 131   2.0000      -5.124908      -139.4558
 132   2.0000      -5.124754      -139.4516
 133   2.0000      -5.124424      -139.4427
 134   2.0000      -5.124285      -139.4389
 135   2.0000      -5.123923      -139.4290
 136   2.0000      -5.123914      -139.4288
 137   2.0000      -5.123879      -139.4278
 138   2.0000      -5.123814      -139.4261
 139   2.0000      -5.123765      -139.4247
 140   2.0000      -5.123703      -139.4230
 141   2.0000      -5.123537      -139.4185
 142   2.0000      -5.123531      -139.4184
 143   2.0000      -5.123500      -139.4175
 144   2.0000      -5.123488      -139.4172
 145   2.0000      -5.123369      -139.4140
 146   2.0000      -5.123124      -139.4073
 147   2.0000      -5.123117      -139.4071
 148   2.0000      -5.123018      -139.4044
 149   2.0000      -5.123001      -139.4040
 150   2.0000      -5.122992      -139.4037
 151   2.0000      -5.122912      -139.4015
 152   2.0000      -5.121849      -139.3726
 153   2.0000      -5.121672      -139.3678
 154   2.0000      -5.121101      -139.3522
 155   2.0000      -5.120701      -139.3414
 156   2.0000      -5.120600      -139.3386
 157   2.0000      -5.120240      -139.3288
 158   2.0000      -5.119997      -139.3222
 159   2.0000      -5.117132      -139.2442
 160   2.0000      -5.116976      -139.2400
 161   2.0000      -5.116189      -139.2186
 162   2.0000      -5.116058      -139.2150
 163   2.0000      -5.115300      -139.1944
 164   2.0000      -5.114758      -139.1796
 165   2.0000      -3.969457      -108.0144
 166   2.0000      -3.547357       -96.5285
 167   2.0000      -3.546128       -96.4950
 168   2.0000      -3.546118       -96.4948
 169   2.0000      -3.545884       -96.4884
 170   2.0000      -3.545816       -96.4866
 171   2.0000      -3.545433       -96.4761
 172   2.0000      -3.544944       -96.4628
 173   2.0000      -3.544923       -96.4623
 174   2.0000      -3.544831       -96.4598
 175   2.0000      -3.544753       -96.4576
 176   2.0000      -3.544643       -96.4546
 177   2.0000      -3.544357       -96.4469
 178   2.0000      -3.544307       -96.4455
 179   2.0000      -3.544144       -96.4411
 180   2.0000      -3.544140       -96.4410
 181   2.0000      -3.544065       -96.4389
 182   2.0000      -3.543995       -96.4370
 183   2.0000      -3.543973       -96.4364
 184   2.0000      -3.543863       -96.4334
 185   2.0000      -3.543819       -96.4322
 186   2.0000      -3.543588       -96.4259
 187   2.0000      -3.543538       -96.4246
 188   2.0000      -3.543441       -96.4219
 189   2.0000      -3.543439       -96.4219
 190   2.0000      -3.543413       -96.4212
 191   2.0000      -3.543354       -96.4196
 192   2.0000      -3.543351       -96.4195
 193   2.0000      -3.543321       -96.4187
 194   2.0000      -3.543291       -96.4178
 195   2.0000      -3.543204       -96.4155
 196   2.0000      -3.543038       -96.4110
 197   2.0000      -3.542809       -96.4047
 198   2.0000      -3.542662       -96.4007
 199   2.0000      -3.542630       -96.3999
 200   2.0000      -3.542466       -96.3954
 201   2.0000      -3.542340       -96.3920
 202   2.0000      -3.542125       -96.3861
 203   2.0000      -3.542067       -96.3845
 204   2.0000      -3.542062       -96.3844
 205   2.0000      -3.541870       -96.3792
 206   2.0000      -3.541761       -96.3762
 207   2.0000      -3.541622       -96.3724
 208   2.0000      -3.541543       -96.3703
 209   2.0000      -3.541472       -96.3684
 210   2.0000      -3.541446       -96.3677
 211   2.0000      -3.541431       -96.3672
 212   2.0000      -3.541356       -96.3652
 213   2.0000      -3.541354       -96.3651
 214   2.0000      -3.541306       -96.3638
 215   2.0000      -3.541289       -96.3634
 216   2.0000      -3.541203       -96.3610
 217   2.0000      -3.541179       -96.3604
 218   2.0000      -3.541123       -96.3589
 219   2.0000      -3.541117       -96.3587
 220   2.0000      -3.541112       -96.3586
 221   2.0000      -3.541079       -96.3577
 222   2.0000      -3.541075       -96.3576
 223   2.0000      -3.541070       -96.3574
 224   2.0000      -3.541058       -96.3571
 225   2.0000      -3.541023       -96.3561
 226   2.0000      -3.541004       -96.3556
 227   2.0000      -3.540980       -96.3550
 228   2.0000      -3.540914       -96.3532
 229   2.0000      -3.540910       -96.3531
 230   2.0000      -3.540879       -96.3522
 231   2.0000      -3.540857       -96.3516
 232   2.0000      -3.540845       -96.3513
 233   2.0000      -3.540835       -96.3510
 234   2.0000      -3.540822       -96.3507
 235   2.0000      -3.540812       -96.3504
 236   2.0000      -3.540794       -96.3499
 237   2.0000      -3.540787       -96.3497
 238   2.0000      -3.540772       -96.3493
 239   2.0000      -3.540771       -96.3493
 240   2.0000      -3.540754       -96.3488
 241   2.0000      -3.540745       -96.3486
 242   2.0000      -3.540740       -96.3484
 243   2.0000      -3.540735       -96.3483
 244   2.0000      -3.540660       -96.3463
 245   2.0000      -3.540647       -96.3459
 246   2.0000      -3.540625       -96.3453
 247   2.0000      -3.540590       -96.3444
 248   2.0000      -3.540558       -96.3435
 249   2.0000      -3.540529       -96.3427
 250   2.0000      -3.540515       -96.3423
 251   2.0000      -3.540498       -96.3418
 252   2.0000      -3.540496       -96.3418
 253   2.0000      -3.540378       -96.3386
 254   2.0000      -3.540237       -96.3348
 255   2.0000      -3.540170       -96.3329
 256   2.0000      -3.540089       -96.3307
 257   2.0000      -3.539964       -96.3273
 258   2.0000      -3.539948       -96.3269
 259   2.0000      -3.539862       -96.3245
 260   2.0000      -3.539828       -96.3236
 261   2.0000      -3.539749       -96.3215
 262   2.0000      -3.539713       -96.3205
 263   2.0000      -3.539638       -96.3185
 264   2.0000      -3.539025       -96.3018
 265   2.0000      -3.539002       -96.3011
 266   2.0000      -3.538840       -96.2967
 267   2.0000      -3.538794       -96.2955
 268   2.0000      -3.538727       -96.2937
 269   2.0000      -3.538673       -96.2922
 270   2.0000      -3.538614       -96.2906
 271   2.0000      -3.538339       -96.2831
 272   2.0000      -3.538251       -96.2807
 273   2.0000      -3.538166       -96.2784
 274   2.0000      -3.538067       -96.2757
 275   2.0000      -3.538006       -96.2740
 276   2.0000      -3.537892       -96.2709
 277   2.0000      -3.537799       -96.2684
 278   2.0000      -3.537651       -96.2644
 279   2.0000      -3.537562       -96.2619
 280   2.0000      -3.536850       -96.2426
 281   2.0000      -3.536837       -96.2422
 282   2.0000      -3.536608       -96.2360
 283   2.0000      -3.535371       -96.2023
 284   2.0000      -3.534691       -96.1838
 285   2.0000      -3.534411       -96.1762
 286   2.0000      -3.534386       -96.1755
 287   2.0000      -3.534372       -96.1751
 288   2.0000      -3.534040       -96.1661
 289   2.0000      -3.533926       -96.1630
 290   2.0000      -3.533855       -96.1611
 291   2.0000      -3.533457       -96.1503
 292   2.0000      -3.533377       -96.1481
 293   2.0000      -3.533168       -96.1424
 294   2.0000      -3.533004       -96.1379
 295   2.0000      -3.532988       -96.1375
 296   2.0000      -3.532648       -96.1282
 297   2.0000      -3.532519       -96.1247
 298   2.0000      -3.532294       -96.1186
 299   2.0000      -3.532048       -96.1119
 300   2.0000      -3.531930       -96.1087
 301   2.0000      -2.580811       -70.2274
 302   2.0000      -2.579788       -70.1996
 303   2.0000      -2.577454       -70.1361
 304   2.0000      -1.115824       -30.3631
 305   2.0000      -1.114194       -30.3188
 306   2.0000      -1.112844       -30.2820
 307   2.0000      -1.112668       -30.2772
 308   2.0000      -1.110007       -30.2048
 309   2.0000      -1.108916       -30.1751
 310   2.0000      -1.107468       -30.1357
 311   2.0000      -1.106266       -30.1030
 312   2.0000      -1.105659       -30.0865
 313   2.0000      -1.104245       -30.0480
 314   2.0000      -1.104111       -30.0444
 315   2.0000      -1.102769       -30.0079
 316   2.0000      -1.102330       -29.9959
 317   2.0000      -1.101989       -29.9866
 318   2.0000      -1.098713       -29.8975
 319   2.0000      -1.098123       -29.8814
 320   2.0000      -1.097734       -29.8709
 321   2.0000      -1.097204       -29.8564
 322   2.0000      -1.094875       -29.7931
 323   2.0000      -1.094277       -29.7768
 324   2.0000      -1.093945       -29.7678
 325   2.0000      -1.092483       -29.7280
 326   2.0000      -1.089613       -29.6499
 327   2.0000      -1.089245       -29.6399
 328   2.0000      -1.088127       -29.6094
 329   2.0000      -1.087588       -29.5948
 330   2.0000      -1.086807       -29.5735
 331   2.0000      -1.086430       -29.5633
 332   2.0000      -1.085279       -29.5319
 333   2.0000      -1.082414       -29.4540
 334   2.0000      -1.081044       -29.4167
 335   2.0000      -1.080363       -29.3982
 336   2.0000      -1.079504       -29.3748
 337   2.0000      -1.078469       -29.3466
 338   2.0000      -1.077208       -29.3123
 339   2.0000      -1.076762       -29.3002
 340   2.0000      -1.076172       -29.2841
 341   2.0000      -1.075666       -29.2704
 342   2.0000      -1.074849       -29.2481
 343   2.0000      -1.073731       -29.2177
 344   2.0000      -1.071927       -29.1686
 345   2.0000      -1.071763       -29.1641
 346   2.0000      -1.071327       -29.1523
 347   2.0000      -1.070152       -29.1203
 348   2.0000      -1.069997       -29.1161
 349   2.0000      -1.069541       -29.1037
 350   2.0000      -1.068814       -29.0839
 351   2.0000      -1.068153       -29.0659
 352   2.0000      -1.067267       -29.0418
 353   2.0000      -1.066415       -29.0186
 354   2.0000      -1.065103       -28.9829
 355   2.0000      -1.064652       -28.9707
 356   2.0000      -1.063489       -28.9390
 357   2.0000      -1.062967       -28.9248
 358   2.0000      -1.062438       -28.9104
 359   2.0000      -1.062366       -28.9084
 360   2.0000      -1.062165       -28.9030
 361   2.0000      -1.060927       -28.8693
 362   2.0000      -1.060531       -28.8585
 363   2.0000      -1.060191       -28.8493
 364   2.0000      -1.059855       -28.8401
 365   2.0000      -1.058806       -28.8116
 366   2.0000      -1.057140       -28.7663
 367   2.0000      -1.056280       -28.7428
 368   2.0000      -1.055524       -28.7223
 369   2.0000      -1.054292       -28.6887
 370   2.0000      -1.053714       -28.6730
 371   2.0000      -1.049829       -28.5673
 372   2.0000      -0.874876       -23.8066
 373   2.0000      -0.836424       -22.7603
 374   2.0000      -0.789181       -21.4747
 375   2.0000      -0.727935       -19.8081
 376   2.0000      -0.721616       -19.6362
 377   2.0000      -0.717963       -19.5368
 378   2.0000      -0.715629       -19.4733
 379   2.0000      -0.714404       -19.4399
 380   2.0000      -0.712877       -19.3984
 381   2.0000      -0.710639       -19.3375
 382   2.0000      -0.708140       -19.2695
 383   2.0000      -0.707725       -19.2582
 384   2.0000      -0.706520       -19.2254
 385   2.0000      -0.702614       -19.1191
 386   2.0000      -0.701805       -19.0971
 387   2.0000      -0.698354       -19.0032
 388   2.0000      -0.695076       -18.9140
 389   2.0000      -0.692301       -18.8385
 390   2.0000      -0.689129       -18.7521
 391   2.0000      -0.685730       -18.6597
 392   2.0000      -0.682595       -18.5743
 393   2.0000      -0.678745       -18.4696
 394   2.0000      -0.677028       -18.4229
 395   2.0000      -0.674587       -18.3565
 396   2.0000      -0.672007       -18.2862
 397   2.0000      -0.667978       -18.1766
 398   2.0000      -0.664691       -18.0872
 399   2.0000      -0.662707       -18.0332
 400   2.0000      -0.660347       -17.9690
 401   2.0000      -0.656357       -17.8604
 402   2.0000      -0.654721       -17.8159
 403   2.0000      -0.653719       -17.7886
 404   2.0000      -0.650188       -17.6925
 405   2.0000      -0.649363       -17.6701
 406   2.0000      -0.648397       -17.6438
 407   2.0000      -0.646237       -17.5850
 408   2.0000      -0.642415       -17.4810
 409   2.0000      -0.641634       -17.4597
 410   2.0000      -0.641128       -17.4460
 411   2.0000      -0.637590       -17.3497
 412   2.0000      -0.633889       -17.2490
 413   2.0000      -0.632513       -17.2116
 414   2.0000      -0.627585       -17.0774
 415   2.0000      -0.625617       -17.0239
 416   2.0000      -0.620987       -16.8979
 417   2.0000      -0.620633       -16.8883
 418   2.0000      -0.618620       -16.8335
 419   2.0000      -0.613880       -16.7045
 420   2.0000      -0.610929       -16.6242
 421   2.0000      -0.610439       -16.6109
 422   2.0000      -0.609554       -16.5868
 423   2.0000      -0.609027       -16.5725
 424   2.0000      -0.608522       -16.5587
 425   2.0000      -0.608218       -16.5505
 426   2.0000      -0.607668       -16.5355
 427   2.0000      -0.607064       -16.5191
 428   2.0000      -0.604633       -16.4529
 429   2.0000      -0.604486       -16.4489
 430   2.0000      -0.604147       -16.4397
 431   2.0000      -0.603920       -16.4335
 432   2.0000      -0.603123       -16.4118
 433   2.0000      -0.602421       -16.3927
 434   2.0000      -0.601362       -16.3639
 435   2.0000      -0.601072       -16.3560
 436   2.0000      -0.599895       -16.3240
 437   2.0000      -0.598658       -16.2903
 438   2.0000      -0.598590       -16.2885
 439   2.0000      -0.597728       -16.2650
 440   2.0000      -0.597038       -16.2462
 441   2.0000      -0.595842       -16.2137
 442   2.0000      -0.592785       -16.1305
 443   2.0000      -0.577622       -15.7179
 444   2.0000      -0.577145       -15.7049
 445   2.0000      -0.569700       -15.5023
 446   2.0000      -0.558077       -15.1861
 447   2.0000      -0.555624       -15.1193
 448   2.0000      -0.552641       -15.0381
 449   2.0000      -0.549927       -14.9643
 450   2.0000      -0.547599       -14.9009
 451   2.0000      -0.545177       -14.8350
 452   2.0000      -0.544814       -14.8251
 453   2.0000      -0.541176       -14.7261
 454   2.0000      -0.540053       -14.6956
 455   2.0000      -0.539557       -14.6821
 456   2.0000      -0.538405       -14.6508
 457   2.0000      -0.535746       -14.5784
 458   2.0000      -0.534875       -14.5547
 459   2.0000      -0.534002       -14.5309
 460   2.0000      -0.533721       -14.5233
 461   2.0000      -0.532905       -14.5011
 462   2.0000      -0.531866       -14.4728
 463   2.0000      -0.529754       -14.4153
 464   2.0000      -0.529391       -14.4055
 465   2.0000      -0.528300       -14.3758
 466   2.0000      -0.527923       -14.3655
 467   2.0000      -0.525533       -14.3005
 468   2.0000      -0.525230       -14.2922
 469   2.0000      -0.524842       -14.2817
 470   2.0000      -0.523508       -14.2454
 471   2.0000      -0.522337       -14.2135
 472   2.0000      -0.521833       -14.1998
 473   2.0000      -0.520616       -14.1667
 474   2.0000      -0.519856       -14.1460
 475   2.0000      -0.518957       -14.1215
 476   2.0000      -0.518509       -14.1093
 477   2.0000      -0.518343       -14.1048
 478   2.0000      -0.518028       -14.0963
 479   2.0000      -0.517603       -14.0847
 480   2.0000      -0.516532       -14.0555
 481   2.0000      -0.516418       -14.0524
 482   2.0000      -0.516119       -14.0443
 483   2.0000      -0.515755       -14.0344
 484   2.0000      -0.515330       -14.0229
 485   2.0000      -0.514065       -13.9884
 486   2.0000      -0.513457       -13.9719
 487   2.0000      -0.512363       -13.9421
 488   2.0000      -0.510612       -13.8945
 489   2.0000      -0.509850       -13.8737
 490   2.0000      -0.509459       -13.8631
 491   2.0000      -0.508846       -13.8464
 492   2.0000      -0.507208       -13.8018
 493   2.0000      -0.506761       -13.7897
 494   2.0000      -0.506251       -13.7758
 495   2.0000      -0.505223       -13.7478
 496   2.0000      -0.504589       -13.7306
 497   2.0000      -0.504069       -13.7164
 498   2.0000      -0.502934       -13.6855
 499   2.0000      -0.502054       -13.6616
 500   2.0000      -0.501665       -13.6510
 501   2.0000      -0.501079       -13.6351
 502   2.0000      -0.500692       -13.6245
 503   2.0000      -0.499086       -13.5808
 504   2.0000      -0.498428       -13.5629
 505   2.0000      -0.497711       -13.5434
 506   2.0000      -0.496869       -13.5205
 507   2.0000      -0.496524       -13.5111
 508   2.0000      -0.495439       -13.4816
 509   2.0000      -0.494832       -13.4651
 510   2.0000      -0.493973       -13.4417
 511   2.0000      -0.493626       -13.4322
 512   2.0000      -0.493500       -13.4288
 513   2.0000      -0.493243       -13.4218
 514   2.0000      -0.492461       -13.4005
 515   2.0000      -0.491946       -13.3865
 516   2.0000      -0.491247       -13.3675
 517   2.0000      -0.490852       -13.3568
 518   2.0000      -0.490456       -13.3460
 519   2.0000      -0.490020       -13.3341
 520   2.0000      -0.489097       -13.3090
 521   2.0000      -0.488561       -13.2944
 522   2.0000      -0.487931       -13.2773
 523   2.0000      -0.487547       -13.2668
 524   2.0000      -0.486972       -13.2512
 525   2.0000      -0.486568       -13.2402
 526   2.0000      -0.486056       -13.2262
 527   2.0000      -0.484827       -13.1928
 528   2.0000      -0.483758       -13.1637
 529   2.0000      -0.483072       -13.1451
 530   2.0000      -0.482328       -13.1248
 531   2.0000      -0.481826       -13.1112
 532   2.0000      -0.480895       -13.0858
 533   2.0000      -0.480599       -13.0778
 534   2.0000      -0.480021       -13.0620
 535   2.0000      -0.479624       -13.0512
 536   2.0000      -0.479200       -13.0397
 537   2.0000      -0.478726       -13.0268
 538   2.0000      -0.478291       -13.0149
 539   2.0000      -0.477990       -13.0068
 540   2.0000      -0.477316       -12.9884
 541   2.0000      -0.476762       -12.9733
 542   2.0000      -0.475738       -12.9455
 543   2.0000      -0.475619       -12.9423
 544   2.0000      -0.474809       -12.9202
 545   2.0000      -0.474479       -12.9112
 546   2.0000      -0.474297       -12.9063
 547   2.0000      -0.473497       -12.8845
 548   2.0000      -0.472572       -12.8593
 549   2.0000      -0.471980       -12.8432
 550   2.0000      -0.471679       -12.8350
 551   2.0000      -0.471124       -12.8199
 552   2.0000      -0.470742       -12.8095
 553   2.0000      -0.470673       -12.8077
 554   2.0000      -0.470422       -12.8008
 555   2.0000      -0.469366       -12.7721
 556   2.0000      -0.469104       -12.7650
 557   2.0000      -0.468344       -12.7443
 558   2.0000      -0.467622       -12.7246
 559   2.0000      -0.467007       -12.7079
 560   2.0000      -0.466358       -12.6903
 561   2.0000      -0.465591       -12.6694
 562   2.0000      -0.465089       -12.6557
 563   2.0000      -0.464431       -12.6378
 564   2.0000      -0.464243       -12.6327
 565   2.0000      -0.463328       -12.6078
 566   2.0000      -0.462479       -12.5847
 567   2.0000      -0.461603       -12.5609
 568   2.0000      -0.461228       -12.5507
 569   2.0000      -0.460952       -12.5431
 570   2.0000      -0.460262       -12.5244
[...]
172 H      0.6291     1.0000     0.3709     0.7961     0.7961     0.0000
173 H      0.5940     1.0000     0.4060     0.7685     0.7685     0.0000
174 H      0.6044     1.0000     0.3956     0.7814     0.7814    -0.0000
175 H      0.6476     1.0000     0.3524     0.8056     0.8056    -0.0000
176 H      0.6113     1.0000     0.3887     0.7952     0.7952    -0.0000
177 H      0.6150     1.0000     0.3850     0.7984     0.7984    -0.0000
178 H      0.6084     1.0000     0.3916     0.7971     0.7971     0.0000

  Mayer bond orders larger than 0.1
B(  0-O ,  1-Al) :  -0.1200 B(  0-O ,  2-O ) :   0.1102 B(  0-O , 11-Si) :  -0.1463 
B(  0-O , 25-Si) :  -0.1106 B(  0-O , 26-O ) :   0.5626 B(  0-O , 27-Si) :   0.5115 
B(  0-O , 28-O ) :  -0.1274 B(  0-O , 29-O ) :   0.3366 B(  0-O , 64-O ) :   0.1560 
B(  0-O , 74-O ) :   0.1617 B(  0-O ,162-C ) :   0.5412 B(  0-O ,163-C ) :  -0.1732 
B(  0-O ,164-C ) :  -0.2142 B(  0-O ,166-C ) :  -0.1910 B(  1-Al,  2-O ) :   2.2692 
B(  1-Al,  3-Si) :   0.5241 B(  1-Al,  4-O ) :   0.5676 B(  1-Al,  6-O ) :   0.1546 
B(  1-Al,  8-O ) :   0.1216 B(  1-Al, 10-O ) :   0.2559 B(  1-Al, 11-Si) :   1.4667 
B(  1-Al, 12-O ) :   0.5219 B(  1-Al, 13-Si) :   0.1353 B(  1-Al, 14-O ) :   0.1239 
B(  1-Al, 19-Si) :   0.5312 B(  1-Al, 21-Si) :   0.2085 B(  1-Al, 23-Si) :  -0.1997 
B(  1-Al, 26-O ) :  -0.3757 B(  1-Al, 28-O ) :  -2.1289 B(  1-Al, 29-O ) :  -0.5808 
B(  1-Al, 30-Si) :  -0.2226 B(  1-Al, 31-O ) :   0.1275 B(  1-Al, 34-Si) :   0.2232 
B(  1-Al, 44-O ) :  -0.7954 B(  1-Al, 45-O ) :   0.2759 B(  1-Al, 49-Si) :  -0.2485 
B(  1-Al, 50-O ) :   0.2098 B(  1-Al, 52-O ) :   0.4275 B(  1-Al, 54-O ) :   0.1777 
B(  1-Al, 55-Si) :  -0.2261 B(  1-Al, 56-O ) :  -0.1878 B(  1-Al, 57-O ) :   0.5014 
B(  1-Al, 58-Si) :  -0.1456 B(  1-Al, 62-O ) :  -0.7531 B(  1-Al, 63-Si) :   1.1328 
B(  1-Al, 70-Si) :  -0.2303 B(  1-Al, 71-O ) :  -0.7811 B(  1-Al, 73-O ) :  -0.6470 
B(  1-Al, 74-O ) :   0.3431 B(  1-Al,147-H ) :  -0.1368 B(  1-Al,162-C ) :  -0.8707 
B(  1-Al,164-C ) :  -0.3959 B(  1-Al,166-C ) :   0.1061 B(  1-Al,173-H ) :  -0.1233 
B(  2-O ,  3-Si) :   0.7504 B(  2-O , 19-Si) :  -0.1285 B(  2-O , 27-Si) :  -1.5316 
B(  2-O , 28-O ) :   0.2285 B(  2-O , 30-Si) :   0.1211 B(  2-O , 51-O ) :   0.3625 
B(  2-O , 52-O ) :   0.1347 B(  2-O ,162-C ) :   0.1114 B(  3-Si,  4-O ) :   1.1689 
B(  3-Si,  6-O ) :  -0.1302 B(  3-Si, 50-O ) :   0.3575 B(  3-Si, 51-O ) :  -0.3399 
B(  3-Si, 52-O ) :   1.0474 B(  3-Si, 53-Si) :  -0.2198 B(  3-Si, 58-Si) :   0.2404 
B(  3-Si, 63-Si) :  -0.1485 B(  3-Si, 64-O ) :   0.3840 B(  3-Si,152-H ) :  -0.2268 
B(  3-Si,164-C ) :   0.1147 B(  4-O ,  5-Si) :   0.7731 B(  4-O ,  6-O ) :   0.1032 
B(  4-O , 49-Si) :  -0.1246 B(  4-O , 51-O ) :   0.4770 B(  4-O , 52-O ) :   0.1517 
B(  5-Si,  6-O ) :   0.2882 B(  5-Si, 61-O ) :   0.6557 B(  5-Si,148-H ) :   1.2186 
B(  6-O ,  7-Si) :   1.0626 B(  6-O ,  8-O ) :   0.2354 B(  6-O , 61-O ) :   0.3894 
B(  6-O , 63-Si) :   0.3925 B(  7-Si, 10-O ) :   0.1129 B(  7-Si, 62-O ) :  -0.1406 
B(  7-Si, 63-Si) :  -0.1581 B(  7-Si, 72-O ) :   0.7317 B(  7-Si,147-H ) :   1.2878 
B(  8-O ,  9-Si) :   0.9101 B(  8-O , 63-Si) :  -0.1048 B(  8-O , 72-O ) :   0.2578 
B(  9-Si, 10-O ) :   0.8752 B(  9-Si, 11-Si) :   0.2926 B(  9-Si,143-H ) :   0.9606 
B(  9-Si,144-H ) :   0.9811 B( 10-O , 11-Si) :   0.5701 B( 10-O , 12-O ) :   0.3965 
B( 10-O , 27-Si) :   0.1646 B( 10-O , 63-Si) :  -0.1699 B( 10-O , 73-O ) :   0.2519 
B( 10-O , 74-O ) :   0.1810 B( 11-Si, 12-O ) :   1.1009 B( 11-Si, 27-Si) :  -0.9622 
B( 11-Si, 28-O ) :   0.2820 B( 11-Si, 29-O ) :   0.1149 B( 11-Si, 34-Si) :  -0.1536 
B( 11-Si, 44-O ) :   0.2026 B( 11-Si, 72-O ) :  -0.1366 B( 11-Si, 73-O ) :   1.1886 
B( 11-Si, 74-O ) :   0.3237 B( 11-Si,162-C ) :  -0.2510 B( 11-Si,163-C ) :   0.2054 
B( 12-O , 13-Si) :   1.0150 B( 12-O , 14-O ) :   0.1188 B( 12-O , 27-Si) :  -0.4735 
B( 12-O , 30-Si) :   0.1309 B( 12-O , 34-Si) :  -0.1604 B( 12-O , 50-O ) :   0.1609 
B( 12-O , 73-O ) :   0.2865 B( 12-O ,162-C ) :   0.1302 B( 13-Si, 14-O ) :   0.7352 
B( 13-Si, 15-Si) :   0.1449 B( 13-Si, 27-Si) :  -0.3798 B( 13-Si, 50-O ) :   0.6586 
B( 13-Si, 63-Si) :   0.2009 B( 13-Si,115-H ) :   1.3146 B( 13-Si,152-H ) :  -0.1429 
B( 13-Si,163-C ) :  -0.1077 B( 14-O , 15-Si) :   0.8190 B( 14-O , 16-O ) :   0.2137 
B( 14-O , 44-O ) :   0.1066 B( 14-O , 48-O ) :   0.1099 B( 14-O , 50-O ) :   0.2316 
B( 15-Si, 16-O ) :   0.6923 B( 15-Si, 30-Si) :   0.2285 B( 15-Si, 44-O ) :   1.1254 
B( 15-Si,153-H ) :  -0.1474 B( 15-Si,154-H ) :   1.2320 B( 16-O , 17-Si) :   0.5702 
B( 16-O , 18-O ) :   0.1875 B( 16-O , 19-Si) :   0.2852 B( 16-O , 44-O ) :   0.1875 
B( 16-O , 48-O ) :   0.1935 B( 17-Si, 18-O ) :   0.7500 B( 17-Si, 20-O ) :  -0.1143 
B( 17-Si, 27-Si) :  -0.1290 B( 17-Si, 48-O ) :   0.6812 B( 17-Si, 49-Si) :   0.1375 
B( 17-Si,152-H ) :  -0.1212 B( 17-Si,153-H ) :   1.4438 B( 18-O , 19-Si) :  -0.2196 
B( 18-O , 20-O ) :   0.4414 B( 18-O , 28-O ) :   0.4373 B( 18-O , 48-O ) :   0.1974 
B( 18-O , 56-O ) :   0.2853 B( 19-Si, 20-O ) :   1.1874 B( 19-Si, 21-Si) :   0.1515 
B( 19-Si, 22-O ) :  -0.1437 B( 19-Si, 26-O ) :   0.1082 B( 19-Si, 28-O ) :   0.6043 
B( 19-Si, 51-O ) :   0.1284 B( 19-Si, 55-Si) :  -0.2075 B( 19-Si, 56-O ) :   1.2116 
B( 19-Si, 91-O ) :   0.1170 B( 19-Si, 92-Si) :   0.2326 B( 19-Si, 98-Si) :  -0.1406 
B( 19-Si,153-H ) :  -0.1911 B( 19-Si,162-C ) :  -0.1733 B( 20-O , 21-Si) :   0.8579 
B( 20-O , 27-Si) :   0.5272 B( 20-O , 56-O ) :   0.1757 B( 20-O , 92-Si) :   0.1137 
B( 21-Si, 22-O ) :   0.3208 B( 21-Si, 27-Si) :  -0.4121 B( 21-Si, 28-O ) :   0.1044 
B( 21-Si,108-O ) :   0.7129 B( 21-Si,158-H ) :   1.1388 B( 22-O , 23-Si) :   1.1244 
B( 22-O , 25-Si) :   0.3276 B( 22-O , 27-Si) :   0.1271 B( 22-O , 47-O ) :   0.2328 
B( 22-O ,108-O ) :   0.3874 B( 23-Si, 24-O ) :   0.7502 B( 23-Si, 25-Si) :  -0.2610 
B( 23-Si, 27-Si) :   0.4730 B( 23-Si, 45-O ) :   0.1019 B( 23-Si, 47-O ) :   0.1330 
B( 23-Si, 92-Si) :   0.1010 B( 23-Si, 98-Si) :  -0.1213 B( 23-Si,109-O ) :  -0.1379 
B( 23-Si,157-H ) :   1.2780 B( 24-O , 25-Si) :   1.1369 B( 24-O , 26-O ) :   0.2305 
B( 24-O , 30-Si) :  -0.1208 B( 24-O , 47-O ) :   0.2569 B( 24-O , 92-Si) :  -0.2240 
B( 24-O ,109-O ) :   0.3439 B( 24-O ,112-O ) :   0.2975 B( 25-Si, 26-O ) :   0.6797 
B( 25-Si, 27-Si) :   0.7254 B( 25-Si, 29-O ) :  -0.1830 B( 25-Si, 45-O ) :  -0.1097 
B( 25-Si, 47-O ) :  -0.1513 B( 25-Si, 56-O ) :  -0.1299 B( 25-Si, 91-O ) :  -0.5562 
B( 25-Si, 92-Si) :   0.4970 B( 25-Si, 98-Si) :   0.5950 B( 25-Si,106-O ) :  -0.1945 
B( 25-Si,109-O ) :   1.3398 B( 25-Si,112-O ) :   0.9901 B( 25-Si,157-H ) :   0.1460 
B( 25-Si,164-C ) :   0.1144 B( 26-O , 27-Si) :   1.4231 B( 26-O , 29-O ) :   0.1081 
B( 26-O , 92-Si) :  -0.2080 B( 26-O ,109-O ) :   0.3928 B( 26-O ,112-O ) :   0.4172 
B( 26-O ,162-C ) :   0.1093 B( 26-O ,163-C ) :  -0.1757 B( 26-O ,164-C ) :   0.2157 
B( 27-Si, 28-O ) :   4.4339 B( 27-Si, 29-O ) :   2.8647 B( 27-Si, 30-Si) :   0.5630 
B( 27-Si, 31-O ) :  -0.5888 B( 27-Si, 44-O ) :   0.7927 B( 27-Si, 47-O ) :   0.1287 
B( 27-Si, 49-Si) :   0.2072 B( 27-Si, 52-O ) :  -0.1914 B( 27-Si, 54-O ) :   0.1123 
B( 27-Si, 56-O ) :   0.1348 B( 27-Si, 57-O ) :  -0.1072 B( 27-Si, 63-Si) :  -0.5985 
B( 27-Si, 74-O ) :   0.4165 B( 27-Si, 91-O ) :   0.4286 B( 27-Si, 92-Si) :  -0.1524 
B( 27-Si, 98-Si) :  -0.2056 B( 27-Si,109-O ) :  -0.9983 B( 27-Si,112-O ) :  -0.3472 
B( 27-Si,157-H ) :  -0.1609 B( 27-Si,163-C ) :  -0.2052 B( 27-Si,164-C ) :  -0.4660 
B( 27-Si,166-C ) :   0.1680 B( 28-O , 29-O ) :   0.1680 B( 28-O , 30-Si) :  -0.4475 
B( 28-O , 56-O ) :   0.2410 B( 28-O ,162-C ) :  -0.1587 B( 29-O , 30-Si) :  -0.1134 
B( 29-O , 31-O ) :   0.3593 B( 29-O , 45-O ) :   0.3516 B( 29-O ,162-C ) :   0.3703 
B( 29-O ,163-C ) :  -0.6699 B( 29-O ,164-C ) :   0.3114 B( 30-Si, 31-O ) :   1.0943 
B( 30-Si, 44-O ) :   0.7938 B( 30-Si, 45-O ) :   0.7459 B( 30-Si, 46-Si) :   0.3571 
B( 30-Si,164-C ) :   0.1242 B( 31-O , 32-Si) :   0.5962 B( 31-O , 33-O ) :   0.1971 
B( 31-O , 43-O ) :   0.1163 B( 31-O , 44-O ) :   0.2700 B( 31-O , 45-O ) :   0.2933 
B( 31-O ,162-C ) :   0.1021 B( 32-Si, 33-O ) :   0.7803 B( 32-Si, 43-O ) :   1.1218 
B( 32-Si, 44-O ) :  -0.1395 B( 32-Si,125-H ) :   1.2640 B( 32-Si,142-H ) :  -0.1120 
B( 33-O , 34-Si) :   0.8327 B( 33-O , 35-O ) :   0.1168 B( 33-O , 43-O ) :   0.1244 
B( 33-O , 73-O ) :   0.1478 B( 34-Si, 35-O ) :   0.9882 B( 34-Si, 73-O ) :   0.7438 
B( 34-Si,142-H ) :   1.3424 B( 34-Si,162-C ) :  -0.1039 B( 35-O , 36-Si) :   0.8584 
B( 35-O , 73-O ) :   0.1146 B( 36-Si, 37-O ) :   0.8754 B( 36-Si,140-H ) :   0.9568 
B( 36-Si,141-H ) :   0.9909 B( 37-O , 38-Si) :   1.2940 B( 37-O , 39-O ) :   0.1382 
B( 37-O , 40-Si) :  -0.1464 B( 37-O , 75-O ) :   0.2196 B( 38-Si, 39-O ) :   0.8743 
B( 38-Si, 41-O ) :  -0.1299 B( 38-Si, 75-O ) :   0.2647 B( 38-Si,139-H ) :   1.2822 
B( 39-O , 40-Si) :   0.9003 B( 39-O , 41-O ) :   0.1109 B( 39-O , 75-O ) :   0.1908 
B( 39-O ,105-O ) :   0.1402 B( 40-Si, 41-O ) :   1.3539 B( 40-Si,105-O ) :   0.5767 
B( 40-Si,128-H ) :   1.1569 B( 40-Si,166-C ) :  -0.1095 B( 41-O , 42-Si) :   0.8635 
B( 41-O ,105-O ) :   0.1423 B( 42-Si, 43-O ) :   0.8417 B( 42-Si,126-H ) :   0.9731 
B( 42-Si,127-H ) :   0.9766 B( 44-O , 45-O ) :   0.3089 B( 44-O ,164-C ) :  -0.1036 
B( 45-O , 46-Si) :   0.9173 B( 46-Si, 47-O ) :   0.9523 B( 46-Si,155-H ) :   0.9788 
B( 46-Si,156-H ) :   0.9522 B( 47-O ,157-H ) :  -0.1004 B( 48-O , 49-Si) :   0.7043 
B( 48-O , 50-O ) :   0.2001 B( 48-O , 51-O ) :   0.1810 B( 49-Si, 50-O ) :   0.6046 
B( 49-Si, 51-O ) :   0.7648 B( 49-Si,152-H ) :   1.5183 B( 49-Si,153-H ) :  -0.1057 
B( 50-O , 51-O ) :   0.1512 B( 51-O , 52-O ) :   0.3590 B( 52-O , 53-Si) :   0.7109 
B( 52-O , 54-O ) :   0.1599 B( 52-O , 57-O ) :   0.1745 B( 52-O , 58-Si) :   0.1057 
B( 52-O , 63-Si) :  -0.1080 B( 53-Si, 54-O ) :   0.4945 B( 53-Si, 55-Si) :  -0.1155 
B( 53-Si, 57-O ) :   0.3279 B( 53-Si, 58-Si) :  -0.2243 B( 53-Si, 59-O ) :  -0.2473 
B( 53-Si,151-H ) :   1.4080 B( 54-O , 55-Si) :   0.5559 B( 54-O , 56-O ) :   0.1488 
B( 54-O , 57-O ) :   0.2156 B( 54-O , 91-O ) :   0.2108 B( 55-Si, 56-O ) :   0.7008 
B( 55-Si, 91-O ) :   0.3119 B( 55-Si, 92-Si) :  -0.2162 B( 55-Si,106-O ) :  -0.2690 
B( 55-Si,151-H ) :  -0.1144 B( 55-Si,161-H ) :   1.3508 B( 56-O , 91-O ) :   0.1709 
B( 57-O , 58-Si) :   1.4151 B( 57-O , 59-O ) :   0.6171 B( 57-O , 63-Si) :  -0.5369 
B( 57-O , 65-O ) :   0.4425 B( 58-Si, 59-O ) :   0.3774 B( 58-Si, 60-Si) :   0.1134 
B( 58-Si, 61-O ) :   0.2160 B( 58-Si, 62-O ) :   0.9457 B( 58-Si, 63-Si) :   0.4598 
B( 58-Si, 64-O ) :  -0.1206 B( 58-Si, 65-O ) :  -0.2364 B( 58-Si, 66-Si) :   0.1412 
B( 58-Si, 69-O ) :  -0.1009 B( 58-Si, 70-Si) :  -0.1038 B( 58-Si, 72-O ) :  -0.2362 
B( 59-O , 60-Si) :   0.6814 B( 59-O , 62-O ) :   0.4633 B( 59-O , 63-Si) :  -0.2084 
B( 59-O , 65-O ) :   0.3462 B( 60-Si, 61-O ) :   0.8929 B( 60-Si,149-H ) :   1.0277 
B( 60-Si,150-H ) :   0.8735 B( 62-O , 63-Si) :   1.1913 B( 62-O , 64-O ) :   0.2495 
B( 62-O , 65-O ) :   0.3580 B( 62-O , 69-O ) :   0.1049 B( 62-O , 70-Si) :  -0.1279 
B( 62-O , 71-O ) :   0.2607 B( 62-O , 72-O ) :   0.4253 B( 63-Si, 64-O ) :   1.4467 
B( 63-Si, 65-O ) :   0.1070 B( 63-Si, 70-Si) :   0.4811 B( 63-Si, 71-O ) :   1.2397 
B( 63-Si, 72-O ) :   1.1468 B( 63-Si,147-H ) :   0.1007 B( 63-Si,162-C ) :   0.2389 
B( 63-Si,164-C ) :  -0.5480 B( 64-O , 71-O ) :   0.1646 B( 64-O , 72-O ) :   0.1033 
B( 64-O ,164-C ) :  -0.1550 B( 64-O ,166-C ) :   0.2404 B( 65-O , 66-Si) :   0.7926 
B( 66-Si, 67-O ) :   0.6079 B( 66-Si,116-H ) :   1.0925 B( 66-Si,117-H ) :   0.9935 
B( 67-O , 68-Si) :   0.7321 B( 67-O ,110-O ) :   0.2786 B( 68-Si, 69-O ) :   1.0992 
B( 68-Si, 88-Si) :  -0.1969 B( 68-Si,110-O ) :   0.8372 B( 68-Si,118-H ) :   1.0939 
B( 69-O , 70-Si) :   1.3423 B( 69-O , 71-O ) :   0.1307 B( 69-O , 90-O ) :   0.1982 
B( 69-O ,110-O ) :   0.1585 B( 70-Si, 71-O ) :   0.5631 B( 70-Si, 90-O ) :   0.9416 
B( 70-Si,146-H ) :   1.2021 B( 71-O , 72-O ) :   0.3868 B( 71-O ,164-C ) :   0.2333 
B( 73-O , 74-O ) :   0.3945 B( 74-O ,162-C ) :   0.6738 B( 74-O ,163-C ) :   0.1813 
B( 74-O ,164-C ) :  -0.8380 B( 74-O ,166-C ) :  -0.1278 B( 75-O , 76-Si) :   0.9452 
B( 75-O ,167-C ) :   0.1332 B( 75-O ,168-C ) :  -0.1145 B( 76-Si, 77-O ) :   0.9991 
B( 76-Si,137-H ) :   0.9837 B( 76-Si,138-H ) :   0.9284 B( 77-O , 78-Si) :   0.9919 
B( 78-Si, 79-O ) :   0.8614 B( 78-Si,135-H ) :   1.0036 B( 78-Si,136-H ) :   0.9405 
B( 79-O , 80-Si) :   0.4545 B( 79-O , 81-O ) :   0.2576 B( 79-O , 90-O ) :   0.2231 
B( 79-O ,167-C ) :   0.1517 B( 80-Si, 81-O ) :   0.4838 B( 80-Si, 82-Si) :  -0.1518 
B( 80-Si, 90-O ) :   0.9382 B( 80-Si,134-H ) :   1.5403 B( 80-Si,164-C ) :  -0.1166 
B( 80-Si,166-C ) :   0.3575 B( 81-O , 82-Si) :   0.8382 B( 81-O , 83-O ) :   0.1168 
B( 81-O , 89-O ) :   0.1322 B( 81-O , 90-O ) :   0.2255 B( 81-O ,134-H ) :  -0.1046 
B( 82-Si, 83-O ) :   1.2419 B( 82-Si, 89-O ) :   0.9434 B( 82-Si,114-H ) :   1.3448 
B( 82-Si,119-H ) :  -0.1085 B( 82-Si,134-H ) :  -0.1517 B( 82-Si,166-C ) :   0.1490 
B( 82-Si,167-C ) :  -0.1645 B( 83-O , 84-Si) :   1.2800 B( 83-O , 85-O ) :   0.1400 
B( 83-O , 87-O ) :   0.1821 B( 83-O , 89-O ) :   0.1574 B( 83-O ,111-O ) :   0.1267 
B( 83-O ,166-C ) :   0.1033 B( 84-Si, 85-O ) :   0.8911 B( 84-Si,100-Si) :  -0.1237 
B( 84-Si,111-O ) :   0.7923 B( 84-Si,123-H ) :  -0.1082 B( 84-Si,124-H ) :   1.2487 
B( 84-Si,132-H ) :  -0.1144 B( 84-Si,164-C ) :   0.1032 B( 85-O , 86-Si) :   0.9559 
B( 85-O , 87-O ) :   0.1031 B( 85-O ,111-O ) :   0.1380 B( 85-O ,113-O ) :   0.2322 
B( 86-Si, 87-O ) :   1.2770 B( 86-Si, 96-Si) :  -0.1930 B( 86-Si,113-O ) :   0.8073 
B( 86-Si,123-H ) :   1.2181 B( 86-Si,124-H ) :  -0.1147 B( 87-O , 88-Si) :   1.2533 
B( 87-O ,110-O ) :   0.1267 B( 87-O ,113-O ) :   0.1342 B( 88-Si, 89-O ) :   0.9431 
B( 88-Si,110-O ) :   0.8041 B( 88-Si,114-H ) :  -0.1261 B( 88-Si,119-H ) :   1.2149 
B( 89-O ,110-O ) :   0.2206 B( 90-O ,134-H ) :  -0.1076 B( 91-O , 92-Si) :   1.4976 
B( 91-O , 93-O ) :   0.4223 B( 91-O ,106-O ) :   0.6500 B( 91-O ,107-Si) :  -0.1134 
B( 92-Si, 93-O ) :  -0.1556 B( 92-Si, 94-Si) :   0.1257 B( 92-Si, 98-Si) :  -0.1659 
B( 92-Si,106-O ) :   0.2917 B( 92-Si,107-Si) :   0.1676 B( 92-Si,108-O ) :   0.1914 
B( 92-Si,109-O ) :   0.8460 B( 92-Si,161-H ) :  -0.1100 B( 92-Si,163-C ) :   0.1005 
B( 93-O , 94-Si) :   0.7882 B( 93-O ,106-O ) :   0.3280 B( 93-O ,109-O ) :   0.3366 
B( 94-Si, 95-O ) :   0.6175 B( 94-Si,120-H ) :   1.0008 B( 94-Si,121-H ) :   1.0759 
B( 95-O , 96-Si) :   0.7194 B( 95-O ,113-O ) :   0.2805 B( 96-Si, 97-O ) :   1.1191 
B( 96-Si,113-O ) :   0.8643 B( 96-Si,122-H ) :   1.0760 B( 97-O , 98-Si) :   1.3068 
B( 97-O , 99-O ) :   0.2304 B( 97-O ,113-O ) :   0.1544 B( 98-Si, 99-O ) :   0.8708 
B( 98-Si,112-O ) :   0.8054 B( 98-Si,133-H ) :   1.0778 B( 99-O ,100-Si) :   1.1219 
B( 99-O ,101-O ) :   0.1310 B( 99-O ,111-O ) :   0.1105 B(100-Si,101-O ) :   0.7151 
B(100-Si,111-O ) :   0.8648 B(100-Si,132-H ) :   1.3110 B(100-Si,164-C ) :  -0.2033 
B(100-Si,166-C ) :   0.1392 B(101-O ,102-Si) :   0.8029 B(101-O ,111-O ) :   0.1755 
B(102-Si,103-O ) :   0.9874 B(102-Si,130-H ) :   0.9480 B(102-Si,131-H ) :   1.0048 
B(103-O ,104-Si) :   0.9781 B(104-Si,105-O ) :   0.8873 B(104-Si,129-H ) :   0.9443 
B(104-Si,145-H ) :   0.9826 B(106-O ,107-Si) :   0.6613 B(106-O ,109-O ) :   0.5074 
B(107-Si,108-O ) :   0.8900 B(107-Si,159-H ) :   0.8587 B(107-Si,160-H ) :   1.0509 
B(109-O ,112-O ) :   0.2569 B(162-C ,163-C ) :  -1.1976 B(162-C ,164-C ) :  -0.6214 
B(162-C ,166-C ) :  -1.3353 B(162-C ,167-C ) :   0.1512 B(162-C ,170-H ) :  -0.1272 
B(162-C ,173-H ) :  -0.1728 B(162-C ,174-H ) :  -0.2898 B(162-C ,175-H ) :   0.9904 
B(162-C ,177-H ) :  -0.1522 B(162-C ,178-H ) :  -0.1945 B(163-C ,164-C ) :  -1.2251 
B(163-C ,166-C ) :   0.7735 B(163-C ,167-C ) :  -0.4352 B(163-C ,176-H ) :   0.9208 
B(163-C ,177-H ) :   0.9643 B(163-C ,178-H ) :   0.9457 B(164-C ,166-C ) :  -0.6577 
B(164-C ,167-C ) :   1.0147 B(164-C ,170-H ) :   0.2625 B(164-C ,171-H ) :  -0.1885 
B(164-C ,172-H ) :  -0.3247 B(164-C ,173-H ) :   0.8838 B(164-C ,174-H ) :   1.0479 
B(164-C ,175-H ) :  -0.1790 B(165-H ,166-C ) :   0.1138 B(165-H ,167-C ) :  -0.2611 
B(165-H ,168-C ) :   0.9920 B(166-C ,167-C ) :  -5.1166 B(166-C ,168-C ) :   1.8208 
B(166-C ,170-H ) :   0.1086 B(166-C ,171-H ) :   0.9317 B(166-C ,172-H ) :   1.2612 
B(166-C ,173-H ) :   0.1520 B(167-C ,168-C ) :   0.3229 B(167-C ,169-H ) :  -0.1019 
B(167-C ,170-H ) :   0.5713 B(167-C ,172-H ) :  -0.2625 B(168-C ,169-H ) :   0.9128 


-------
TIMINGS
-------

Total SCF time: 0 hours 4 min 5 sec 

Total time                  ....     245.195 sec
Sum of individual times     ....    1189.143 sec  (485.0%)

Fock matrix formation       ....       0.000 sec  (  0.0%)
Diagonalization             ....       0.000 sec  (  0.0%)
Density matrix formation    ....       0.000 sec  (  0.0%)
Population analysis         ....     239.154 sec  ( 97.5%)
Initial guess               ....     730.940 sec  (298.1%)
Orbital Transformation      ....       0.000 sec  (  0.0%)
Orbital Orthonormalization  ....       0.000 sec  (  0.0%)
DIIS solution               ....       0.000 sec  (  0.0%)
Grid generation             ....     219.049 sec  ( 89.3%)

-------------------------
DFT DISPERSION CORRECTION
-------------------------

First version  (ivdw==1): S.Grimme, J.Comput.Chem., 25, (2004), 1463-1476
Revised method (ivdw==2): S.Grimme, J.Comput.Chem., 27, (2006), 1787-1799
The default B3LYP functional is recognized
Active option ivdw                      ...         2   
Final C6-coefficient scaling factor     ...     1.050
Final VDW-radii scaling factor          ...     1.100
Damping factor alpha                    ...    20.000

C6 coefficient for O  =     0.735000 VDW-radius=    1.342000
C6 coefficient for Al =    11.329500 VDW-radius=    1.639000
C6 coefficient for Si =     9.691500 VDW-radius=    1.716000
C6 coefficient for H  =     0.147000 VDW-radius=    1.001000
C6 coefficient for C  =     1.837500 VDW-radius=    1.452000
Van der Waals correction = -0.404083275 Eh


-------------------------   ----------------
FINAL SINGLE POINT ENERGY       -0.404083275
-------------------------   ----------------


                            ***************************************
                            *     ORCA property calculations      *
                            ***************************************

                                    ---------------------
                                    Active property flags
                                    ---------------------
   (+) Dipole Moment


------------------------------------------------------------------------------
                       ORCA ELECTRIC PROPERTIES CALCULATION
------------------------------------------------------------------------------

Dipole Moment Calculation                       ... on
Quadrupole Moment Calculation                   ... off
Polarizability Calculation                      ... off
GBWName                                         ... R_b3lyp-d.gbw
Electron density file                           ... R_b3lyp-d.scfp.tmp

-------------
DIPOLE MOMENT
-------------
                                X             Y             Z
Electronic contribution:     64.44355     -24.60602      -1.03036
Nuclear contribution   :    -67.13644      25.89972      -1.23819
                        -----------------------------------------
Total Dipole Moment    :     -2.69289       1.29370      -2.26856
                        -----------------------------------------
Magnitude (a.u.)       :      3.75122
Magnitude (Debye)      :      9.53485


Timings for individual modules:

Sum of individual times         ...     1163.285 sec (=  19.388 min)
GTO integral calculation        ...       34.508 sec (=   0.575 min)   3.0 %
SCF iterations                  ...     1128.777 sec (=  18.813 min)  97.0 %
                             ****ORCA TERMINATED NORMALLY****
TOTAL RUN TIME: 0 days 0 hours 19 minutes 33 seconds 780 msec
