aa rad opt                                                              
Freq      UB3LYP                                                      6-31+G(d)           
Number of atoms                            I               11
Charge                                     I                0
Multiplicity                               I                2
Number of electrons                        I               39
Number of alpha electrons                  I               20
Number of beta electrons                   I               19
Number of basis functions                  I              107
Number of independant functions            I              107
Number of point charges in /Mol/           I                0
Number of translation vectors              I                0
Info1-9                                    I   N=           9
          49          48        1002           0           0         100
           6          18        -501
Num ILSW                                   I              100
ILSW                                       I   N=         100
           1           1           0           0           2           0
           0           0           0           0         402      200000
           0           0           0           0           0           0
           0      800000           0           0           1           0
           1           0           0           0     1000000           0
           0           0      100000           0          -1           0
           0           0           0           0           0           0
           0           0           0           1           0           0
           0           0           1      720000      810000           0
           0           0           0           0           0           0
           0           0           0           0           0           0
           0           0           0           0           0           0
           0           0           0           0           0           0
           0           0           0           0           0           0
           0           0           0           0           0           0
           0           0           0           0           0           0
           0           0           0           0
Number of contracted shells                I               37
Highest angular momentum                   I                2
Largest degree of contraction              I                6
Number of primitive shells                 I               84
Pure/Cartesian d shells                    I                1
Pure/Cartesian f shells                    I                0
Virial Ratio                               R      2.009729687252066E+00
SCF Energy                                 R     -2.478867224323960E+02
Total Energy                               R     -2.478867224323960E+02
S**2                                       R      7.560653624525386E-01
S**2 after annihilation                    R      7.500259957405544E-01
RMS Force                                  R      1.285111021695712E-05
RMS Density                                R      2.292398807831672E-09
Atomic numbers                             I   N=          11
           6           6           1           1           1           6
           8           7           1           1           1
Nuclear charges                            R   N=          11
  6.00000000E+00  6.00000000E+00  1.00000000E+00  1.00000000E+00  1.00000000E+00
  6.00000000E+00  8.00000000E+00  7.00000000E+00  1.00000000E+00  1.00000000E+00
  1.00000000E+00
Current cartesian coordinates              R   N=          33
  1.29567766E+00 -1.27250846E+00  1.49725607E-02  3.82705734E+00 -6.11598667E-02
 -1.45798997E-02  1.16346153E+00 -3.32581545E+00  6.89512106E-02  4.92992845E+00
 -5.90306833E-01  1.66841210E+00  3.64529729E+00  1.99552887E+00 -7.12992654E-02
 -1.02683252E+00  2.17892328E-01  4.05906149E-03 -1.03366898E+00  2.55479907E+00
 -4.86800200E-03 -3.25949245E+00 -1.13977304E+00  7.80572571E-02 -3.29675606E+00
 -3.00314226E+00 -3.37608688E-01 -4.87326404E+00 -1.55266367E-01 -2.06847585E-01
  4.94171693E+00 -6.86323279E-01 -1.65577489E+00
Int Atom Types                             I   N=          11
           0           0           0           0           0           0
           0           0           0           0           0
Force Field                                I                0
MM charges                                 R   N=          11
  0.00000000E+00  0.00000000E+00  0.00000000E+00  0.00000000E+00  0.00000000E+00
  0.00000000E+00  0.00000000E+00  0.00000000E+00  0.00000000E+00  0.00000000E+00
  0.00000000E+00
Integer atomic weights                     I   N=          11
          12          12           1           1           1          12
          16          14           1           1           1
Real atomic weights                        R   N=          11
  1.20000000E+01  1.20000000E+01  1.00782504E+00  1.00782504E+00  1.00782504E+00
  1.20000000E+01  1.59949146E+01  1.40030740E+01  1.00782504E+00  1.00782504E+00
  1.00782504E+00
Atom residue info                          I   N=          11
           0           0           0           0           0           0
           0           0           0           0           0
Atom fragment info                         I   N=          11
           0           0           0           0           0           0
           0           0           0           0           0
Atom residue num                           I   N=          11
           0           0           0           0           0           0
           0           0           0           0           0
Nuclear spins                              I   N=          11
           0           0           1           1           1           0
           0           2           1           1           1
Nuclear ZEff                               R   N=          11
 -3.60000000E+00 -3.60000000E+00 -1.00000000E+00 -1.00000000E+00 -1.00000000E+00
 -3.60000000E+00 -5.60000000E+00 -4.55000000E+00 -1.00000000E+00 -1.00000000E+00
 -1.00000000E+00
Nuclear QMom                               R   N=          11
  0.00000000E+00  0.00000000E+00  0.00000000E+00  0.00000000E+00  0.00000000E+00
  0.00000000E+00  0.00000000E+00  2.04400000E+00  0.00000000E+00  0.00000000E+00
  0.00000000E+00
Nuclear GFac                               R   N=          11
  0.00000000E+00  0.00000000E+00  2.79284600E+00  2.79284600E+00  2.79284600E+00
  0.00000000E+00  0.00000000E+00  4.03761000E-01  2.79284600E+00  2.79284600E+00
  2.79284600E+00
MicOpt                                     I   N=          11
          -1          -1          -1          -1          -1          -1
          -1          -1          -1          -1          -1
Constraint Structure                       R   N=          33
  1.29567766E+00 -1.27250846E+00  1.49725607E-02  3.82705734E+00 -6.11598667E-02
 -1.45798997E-02  1.16346153E+00 -3.32581545E+00  6.89512106E-02  4.92992845E+00
 -5.90306833E-01  1.66841210E+00  3.64529729E+00  1.99552887E+00 -7.12992654E-02
 -1.02683252E+00  2.17892328E-01  4.05906149E-03 -1.03366898E+00  2.55479907E+00
 -4.86800200E-03 -3.25949245E+00 -1.13977304E+00  7.80572571E-02 -3.29675606E+00
 -3.00314226E+00 -3.37608688E-01 -4.87326404E+00 -1.55266367E-01 -2.06847585E-01
  4.94171693E+00 -6.86323279E-01 -1.65577489E+00
ONIOM Charges                              I   N=          16
           0           0           0           0           0           0
           0           0           0           0           0           0
           0           0           0           0
ONIOM Multiplicities                       I   N=          16
           2           0           0           0           0           0
           0           0           0           0           0           0
           0           0           0           0
Atom Layers                                I   N=          11
           0           0           0           0           0           0
           0           0           0           0           0
Atom Modifiers                             I   N=          11
           0           0           0           0           0           0
           0           0           0           0           0
Int Atom Modified Types                    I   N=          11
           0           0           0           0           0           0
           0           0           0           0           0
Link Atoms                                 I   N=          11
           0           0           0           0           0           0
           0           0           0           0           0
Atom Modified MM Charges                   R   N=          11
  0.00000000E+00  0.00000000E+00  0.00000000E+00  0.00000000E+00  0.00000000E+00
  0.00000000E+00  0.00000000E+00  0.00000000E+00  0.00000000E+00  0.00000000E+00
  0.00000000E+00
Link Distances                             R   N=          44
  0.00000000E+00  0.00000000E+00  0.00000000E+00  0.00000000E+00  0.00000000E+00
  0.00000000E+00  0.00000000E+00  0.00000000E+00  0.00000000E+00  0.00000000E+00
  0.00000000E+00  0.00000000E+00  0.00000000E+00  0.00000000E+00  0.00000000E+00
  0.00000000E+00  0.00000000E+00  0.00000000E+00  0.00000000E+00  0.00000000E+00
  0.00000000E+00  0.00000000E+00  0.00000000E+00  0.00000000E+00  0.00000000E+00
  0.00000000E+00  0.00000000E+00  0.00000000E+00  0.00000000E+00  0.00000000E+00
  0.00000000E+00  0.00000000E+00  0.00000000E+00  0.00000000E+00  0.00000000E+00
  0.00000000E+00  0.00000000E+00  0.00000000E+00  0.00000000E+00  0.00000000E+00
  0.00000000E+00  0.00000000E+00  0.00000000E+00  0.00000000E+00
MxBond                                     I                4
NBond                                      I   N=          11
           3           4           1           1           1           3
           1           3           1           1           1
IBond                                      I   N=          44
           2           3           6           0           1           4
           5          11           1           0           0           0
           2           0           0           0           2           0
           0           0           1           7           8           0
           6           0           0           0           6           9
          10           0           8           0           0           0
           8           0           0           0           2           0
           0           0
RBond                                      R   N=          44
  2.00000000E+00  1.00000000E+00  1.00000000E+00  0.00000000E+00  2.00000000E+00
  1.00000000E+00  1.00000000E+00  1.00000000E+00  1.00000000E+00  0.00000000E+00
  0.00000000E+00  0.00000000E+00  1.00000000E+00  0.00000000E+00  0.00000000E+00
  0.00000000E+00  1.00000000E+00  0.00000000E+00  0.00000000E+00  0.00000000E+00
  1.00000000E+00  2.00000000E+00  1.00000000E+00  0.00000000E+00  2.00000000E+00
  0.00000000E+00  0.00000000E+00  0.00000000E+00  1.00000000E+00  1.00000000E+00
  1.00000000E+00  0.00000000E+00  1.00000000E+00  0.00000000E+00  0.00000000E+00
  0.00000000E+00  1.00000000E+00  0.00000000E+00  0.00000000E+00  0.00000000E+00
  1.00000000E+00  0.00000000E+00  0.00000000E+00  0.00000000E+00
Cartesian Gradient                         R   N=          33
  7.02801172E-06  1.04581830E-05  3.18987031E-05 -2.06524623E-05  4.16616315E-06
 -1.68505024E-05 -7.47289892E-07 -5.95938755E-07 -1.09024932E-05  4.23487210E-06
 -5.17638515E-06 -1.20557658E-06  3.28039535E-06 -4.78662700E-06  3.84531480E-06
  1.74979359E-05 -3.53307918E-05 -9.33231949E-06  5.71537265E-06  3.20741106E-05
 -4.97235024E-08 -2.29742724E-06  9.50115580E-06  6.70382642E-06 -7.04123627E-06
 -8.81349155E-06 -5.63276093E-06 -1.41134000E-05  5.44684389E-06  2.87213512E-07
  7.09522799E-06 -6.94322236E-06  1.23831824E-06
Cartesian Force Constants                  R   N=         561
  5.60586928E-01  1.80211133E-02  6.22065833E-01 -2.14306725E-03 -1.15666901E-02
  9.39914912E-02 -2.06446704E-01 -5.81695357E-02  1.70361729E-03  4.97294094E-01
 -6.45288590E-02 -1.23912052E-01  1.63032647E-03 -2.71559475E-02  5.75786402E-01
  1.62887949E-03  1.57203461E-03 -5.04288785E-02 -5.28804510E-04 -1.58392417E-03
  5.00139312E-01 -6.06677974E-02 -1.79780238E-02  4.41274302E-04  3.33061477E-03
 -2.86148429E-02  7.38857638E-04  5.86163659E-02 -1.46896338E-02 -3.33975475E-01
  8.05588623E-03  2.40641710E-03 -7.94164796E-03  2.75768982E-04  1.92794772E-02
  3.52507827E-01  2.32431204E-04  8.82413885E-03 -2.00998805E-02 -3.23162938E-05
  4.00340886E-05  1.67653198E-03 -4.14375198E-04 -8.93344069E-03  1.00526121E-02
 -2.36575159E-02  7.24054739E-03 -2.01060641E-02 -1.08075833E-01  3.51759975E-02
 -1.11844428E-01  7.42229262E-04 -3.17147342E-04  1.01451828E-03  1.25471548E-01
 -7.94496828E-03  5.31476204E-03 -1.11158188E-02  3.07035168E-02 -6.53885659E-02
  5.23046923E-02  7.08554658E-04  2.99437857E-04  4.49758961E-04 -3.60376406E-02
  6.37788864E-02 -5.06986220E-04 -2.08573180E-03  3.95875108E-03 -1.06355079E-01
  5.54697074E-02 -2.08667937E-01 -5.53119556E-04 -2.42980018E-04  6.25049293E-04
  1.18722388E-01 -5.99765374E-02  2.29787168E-01  4.02103451E-03 -3.39642054E-02
  8.80467713E-04 -5.17614453E-02  2.76157608E-02 -6.98608720E-04 -5.71792916E-03
 -1.94138707E-03  2.43389438E-05 -1.71907896E-03  1.62635782E-02  1.20206003E-03
  5.52788082E-02 -2.81848471E-03 -1.49671291E-02  3.86284527E-04  2.35505631E-02
 -3.19064964E-01  7.52410376E-03 -1.92125195E-03  2.81688601E-04  3.98368558E-05
  7.82565494E-04 -5.30240066E-03  1.29501607E-04 -2.44564770E-02  3.46538736E-01
 -7.65168941E-06  2.11269035E-04 -1.12153581E-03 -5.14793149E-04  7.48800424E-03
 -5.04465890E-02  5.04398569E-05  4.43709077E-05  2.10503048E-03 -1.47098581E-03
  2.73637755E-02  1.42544912E-04  7.80283188E-04 -8.29675821E-03  4.87423555E-02
 -2.01489193E-01  5.63148826E-02 -2.74339289E-03 -2.17481508E-02  8.04834229E-03
  4.99276907E-04  9.98453987E-03 -1.04564611E-02  6.37848420E-04 -4.70743577E-04
  1.03683297E-03  1.20326305E-03 -5.71598630E-04  2.28371378E-03 -9.85886312E-05
  6.07293196E-01  3.61754255E-02 -1.07721303E-01  6.63864418E-04 -6.51810662E-03
  1.64637328E-02 -1.41451862E-04  2.29734574E-02 -1.23952322E-02 -5.30225950E-05
 -4.15599843E-03 -2.84006250E-03 -6.62306846E-04 -3.29916349E-03 -2.56972014E-03
  8.82438463E-05  1.57913100E-02  8.59334495E-01  6.17968361E-04  1.20577195E-03
 -5.94778232E-02  1.78014599E-04 -2.48835885E-05  6.81467363E-03 -7.24957082E-04
  6.11472055E-04  4.43939319E-03 -9.14047016E-04  2.27545394E-04 -1.59501560E-03
  4.36676089E-05 -9.29549058E-06 -2.40554449E-04  5.39995692E-04 -5.25732731E-04
  1.71808829E-01  6.95027876E-03  3.55922829E-02  2.74322016E-04 -1.09057888E-03
  4.43332308E-04 -2.11248338E-05 -5.30178401E-03  4.65530164E-03 -7.38899307E-05
  4.37289307E-05  7.26458949E-04 -4.98741584E-05  5.60244410E-04  2.12619973E-03
 -4.75680655E-05 -1.08788725E-01  1.60241574E-02  4.43809808E-04  1.00315278E-01
  3.51805016E-02 -6.82077455E-02  3.67017363E-04 -3.65892502E-03 -2.18593919E-03
  1.97105871E-04  5.73762958E-03 -1.35206509E-03  1.22060872E-04  7.90412433E-04
  1.36220988E-03  8.02298155E-05  2.18009777E-03  1.84497179E-03 -7.57042429E-05
 -3.22134166E-03 -5.93849397E-01  2.92534697E-04  2.82098349E-03  7.30049174E-01
 -6.38214077E-04  7.77877592E-04  1.71540035E-02  6.16476202E-05 -1.50332942E-05
 -7.86638887E-04 -3.34107816E-06  3.86473487E-05  1.64941107E-03 -4.66060144E-05
 -6.82770365E-04  7.77014550E-05 -4.07196336E-05 -5.42701278E-05 -1.04077161E-03
 -4.05911539E-05  7.65836110E-04 -6.80154196E-02 -5.94424485E-04 -2.72442212E-03
  3.16282866E-02 -5.13061570E-02 -9.92301138E-03  1.63988313E-03 -1.49527109E-03
  5.07829407E-03 -2.55522946E-04 -4.41309916E-04  3.03568099E-04 -5.25659021E-05
 -1.67976905E-03 -7.38701281E-04 -2.60980037E-04  1.17428318E-03 -3.56057632E-04
 -1.20031272E-05 -2.71670415E-01 -6.87331337E-02  1.12517881E-02  7.69508042E-03
 -3.56382978E-02 -3.82370358E-04  7.35547547E-01  9.83110209E-03  1.70415110E-02
  1.66183582E-04  2.41349551E-03 -1.64523706E-03 -3.22600763E-04 -1.22164124E-03
  1.27552656E-03 -6.49602047E-05  4.33231329E-04  1.29333876E-04 -6.67538975E-05
  1.18795966E-03 -3.10387109E-04 -4.19742704E-06 -5.87418384E-02 -1.60019657E-01
  3.58365022E-03 -6.17829042E-02 -6.80403629E-02  1.61211817E-03 -5.59367134E-02
  8.22295679E-01  3.32546677E-04 -1.80710488E-03  9.93119451E-03  4.95197618E-05
 -2.71888298E-04  2.29012667E-03  3.38789212E-04 -6.43924120E-04 -1.32292579E-03
  7.17797418E-04  4.11079097E-04 -3.29999437E-05 -1.57702668E-04 -3.57886757E-05
  6.52725315E-05 -1.10348745E-02 -7.91463850E-03 -4.38332367E-02 -4.51931518E-04
  3.35075781E-03  1.74253324E-02  7.39500492E-02  7.27791272E-02  5.16609927E-02
 -7.45108543E-04 -3.70710489E-04  5.40740983E-04 -1.03346591E-05  7.96935027E-04
 -6.20135449E-05 -1.76730743E-03  9.29034809E-04 -2.54725891E-04  5.62012597E-05
 -3.13664581E-05  2.12378525E-05  5.01533819E-04 -2.13659551E-05  8.34190677E-08
  1.37088295E-02 -2.60981802E-02 -7.05751617E-03 -6.05247710E-03 -5.64442754E-03
  4.89334198E-04 -7.68063980E-02 -1.89034225E-03 -8.15821923E-03  6.35220683E-02
  1.54289320E-03 -8.61145445E-05  3.44072814E-04 -2.26917123E-04 -3.87355439E-04
  2.27473142E-04  4.92102588E-04  7.84684426E-04 -6.25390877E-05  1.54438765E-04
  1.17913910E-04  5.80096279E-05  6.53020268E-06  1.70891108E-04 -1.31249728E-05
  4.46775728E-03 -1.11929358E-02 -1.63241310E-03 -4.47639377E-03  5.38241528E-05
 -6.74138564E-04 -1.62553098E-04 -4.33834296E-01 -8.96515513E-02  4.17523887E-03
  4.52415264E-01 -3.99186434E-04  1.33153061E-04 -4.01976714E-04 -2.02174691E-04
  2.92984796E-04 -2.66072640E-04 -3.39997213E-04  4.36144901E-04  4.99605698E-04
 -1.73975158E-04 -5.83359879E-05 -5.06980511E-05  1.39897268E-04  5.94979588E-05
  6.25220401E-05  5.00809286E-03  6.16163203E-03 -9.02723456E-03  7.71816967E-04
  2.62525816E-04  6.41030463E-03 -1.12985581E-02 -1.09989683E-01 -2.03397410E-02
  5.05312568E-03  9.50282564E-02  2.63112235E-02 -3.67034451E-03 -5.39537902E-03
  4.47843337E-05 -1.84650302E-04  1.18264220E-03  1.57760823E-04  4.63446825E-04
  2.24447555E-04 -9.05519626E-05 -2.04147607E-04 -6.40871939E-05  4.54833972E-05
 -7.56649151E-06 -8.84189586E-06  1.44292078E-06 -2.56005294E-02  2.19817829E-02
 -5.49918039E-03  5.60330244E-03  7.39852968E-04  1.15302538E-03 -3.39370923E-01
  1.65110453E-01 -5.50756430E-02  7.56559508E-03 -6.02965582E-03  1.33925816E-03
  3.55678779E-01 -2.88072651E-03 -1.67523217E-03  1.16354285E-04 -6.66281618E-04
  6.87887699E-04  2.47729026E-05 -2.20987480E-04  2.21892394E-04  7.56930857E-06
 -1.81693263E-04 -4.79464517E-05 -6.03110824E-06  1.02326781E-04  5.01379387E-05
 -1.24880394E-06 -1.62139847E-02  1.77169649E-02 -3.37398136E-03  2.99916592E-03
 -1.04182996E-03  3.22398539E-04  1.66741818E-01 -1.77141774E-01  2.39525619E-02
  2.81722703E-02 -8.11938081E-03  7.70935549E-03 -1.77631364E-01  1.69389255E-01
  3.27941757E-04  8.28232375E-04  3.17648958E-03  1.07184439E-04  6.58180769E-05
  4.74822558E-04 -6.06215595E-05  9.45769383E-05 -2.34941343E-04  1.19501020E-04
 -2.48091252E-05  8.74271524E-05  2.25480868E-05 -1.05881617E-05  5.56909592E-05
  7.39795320E-03  9.42201077E-04  6.62634408E-04 -2.75941614E-04 -1.73239328E-03
 -4.56190950E-03 -7.48910334E-02  3.22386151E-02 -1.57253131E-02  9.42925710E-03
 -3.58614661E-03 -3.18783244E-03  5.79944184E-02 -2.87715869E-02  1.91377127E-02
 -2.35754214E-02  8.63203956E-03  1.94674345E-02 -1.09811741E-01  4.19583451E-02
  1.10385728E-01  7.58931386E-04 -3.93617137E-04 -9.90711667E-04  9.49338046E-03
 -4.62217783E-03 -1.34683937E-02 -1.75828550E-03  8.39437010E-04  1.31934108E-03
 -6.47209404E-04 -4.14155074E-03  1.12045651E-03  6.56523796E-05  7.13514195E-04
  4.22596008E-05 -1.64666824E-03  5.97197399E-04 -5.10331288E-04  2.73977504E-05
  5.65588996E-05  1.01700665E-04 -2.72961887E-04 -2.20542916E-04 -1.71207486E-04
  1.27366926E-01 -7.88836354E-03  6.12294579E-03  1.09525192E-02  3.73217211E-02
 -7.24122608E-02 -6.00779748E-02  7.65525933E-04  2.93363883E-04 -3.69436355E-04
 -3.88471335E-03  2.57643147E-03  7.30289261E-03  1.63049795E-02 -6.67182446E-03
 -2.68046299E-02  6.90786916E-04 -2.92688508E-03 -3.54668042E-04  8.71415622E-04
  1.36715976E-03  6.33756712E-04 -6.35211719E-04  2.49663936E-04 -1.68630278E-04
 -1.70860850E-05  7.75051858E-05 -3.55319129E-05 -1.09850783E-04 -3.99737052E-05
 -4.39194924E-05 -4.34192035E-02  7.13638740E-02  5.55338187E-04  1.90704929E-03
  3.31816488E-03  1.05533184E-01 -6.30911457E-02 -2.00799352E-01  5.27050678E-04
  2.63477465E-04  6.10113883E-04  1.39819017E-02 -8.89857964E-03 -2.43319919E-02
 -2.19623182E-03  2.67475967E-04  1.67603447E-03 -1.36898297E-03  6.75375067E-04
 -1.53624566E-03  2.48058189E-05 -1.39712605E-04  5.96999213E-05  3.11313438E-04
  6.85005338E-05 -1.18702191E-04 -1.30439127E-06 -3.78982897E-05 -1.01004334E-05
 -7.07980274E-05  1.98356682E-05  1.15219018E-04 -1.17296276E-01  6.89656223E-02
  2.21017160E-01
Dipole Moment                              R   N=           3
 -4.57044640E-03 -1.49272320E+00 -2.25517709E-01
Dipole Derivatives                         R   N=          99
 -2.50797231E-02  1.17209081E-01 -3.00936622E-03  2.82091251E-01  1.64015847E-01
 -2.10687484E-02 -9.45935482E-03 -1.69955155E-02 -1.71235604E-01 -1.59185058E-01
 -2.57481631E-02 -1.04301282E-03  5.71055961E-02 -3.56440194E-02  4.16313967E-03
 -5.18318821E-03  6.03585317E-03  1.13650299E-01 -1.81164253E-02 -4.42411225E-02
  2.08247379E-03 -2.29197441E-02 -1.30586113E-01  3.93326780E-03 -1.09266462E-03
  6.53255989E-03  1.24752841E-01 -1.66015364E-02  1.45676582E-02 -6.69491797E-02
 -2.17386908E-02  7.91392971E-02  5.92568998E-02 -1.06396793E-01  4.51201734E-02
 -3.93064208E-02  9.92509455E-02  2.46999522E-02 -1.06887954E-03 -5.23299125E-02
 -3.64290385E-02  4.55674629E-03  9.99192482E-04  3.85828621E-03  8.78559548E-02
  1.56551518E+00  3.18952336E-01 -2.17376485E-02  1.47427970E-01  1.28043291E+00
 -2.07639520E-02 -1.69359396E-02 -3.48597015E-02  2.65623095E-01 -6.74847098E-01
  9.81199086E-02 -4.36578021E-03 -4.17325753E-02 -1.20150368E+00  1.59862776E-02
 -1.04346924E-02  1.50453966E-03 -3.94728307E-01 -1.12031444E+00 -5.50172455E-01
  4.87897252E-02 -3.47652851E-01 -4.75730668E-01  5.04609330E-02  1.94520260E-01
  1.69790772E-01 -5.86122418E-01  1.66994152E-01  3.49973793E-02  1.07732036E-03
  2.45732342E-02  1.48708226E-01 -3.19434925E-02 -6.47982692E-02 -1.02322052E-01
  3.19042473E-01  2.00446193E-01 -7.07393258E-03 -2.06195444E-02 -9.72194005E-03
  1.35376063E-01  1.17424518E-03 -9.16622810E-02 -2.68729897E-02  3.14146852E-01
 -1.80621959E-02  1.86893584E-02  6.68438922E-02 -1.51023376E-02  7.22211773E-02
 -6.57553168E-02  1.10443731E-01 -5.17919260E-02 -3.36787651E-02
Polarizability                             R   N=           6
  6.03929817E+01  1.00957705E+00  5.12492606E+01 -1.44063546E-01 -1.97048500E-01
  3.39993133E+01
Anisotropic Hyperfine tensors              R   N=          66
 -4.67466256E-01 -1.36483499E-03 -4.62534148E-01  6.10487181E-03  2.86842856E-02
  9.30000405E-01  2.74256127E-03  9.48342338E-03 -1.50067668E-02  1.37277464E-04
  7.74301354E-04  1.22642055E-02 -5.86767045E-02  4.45493753E-03  6.50796284E-02
  1.97506075E-04 -1.47160310E-03 -6.40292384E-03  1.21453032E-02  2.37097766E-03
 -7.63070907E-03  8.85173663E-03 -7.31772090E-04 -4.51459417E-03  1.85232597E-03
  1.00182300E-02  5.56458706E-03 -2.66525429E-04 -3.14354972E-04 -7.41691303E-03
  1.85632299E-02 -1.63480947E-02  2.16554424E-02 -1.10100586E-03 -2.87286283E-03
 -4.02186724E-02 -2.89182001E-01 -1.38910378E-03 -2.76982975E-01 -2.09434709E-03
 -5.98484969E-03  5.66164976E-01 -4.98139770E-02 -9.38319813E-04 -6.75915873E-02
 -1.49734820E-02 -6.26931945E-03  1.17405564E-01  3.66778397E-03  5.68285459E-03
  3.56463661E-03  4.66993619E-04  1.64155226E-03 -7.23242058E-03  9.21635011E-03
 -5.78719572E-03 -4.62755258E-03  1.20014399E-03 -8.35498170E-04 -4.58879753E-03
  1.23390173E-02  1.82853212E-03 -7.57521417E-03 -8.88676077E-03  8.32630552E-04
 -4.76380312E-03
Isotropic Hyperfine splittings             R   N=          11
  9.32390797E-02 -2.36145726E-02 -1.28867442E-02  2.23335494E-02  4.74093939E-04
 -2.67240986E-02  2.13550695E-02  6.42499649E-03 -7.43196268E-04 -1.13398136E-03
  2.16085167E-02
QEq coupling tensors                       R   N=          66
  1.13681925E-01  2.00729963E-02  1.00406171E-01 -5.72180100E-03 -6.33102692E-03
 -2.14088097E-01 -5.57018761E-02 -4.89857127E-02  7.29330317E-02  1.00889203E-03
 -2.65250641E-03 -1.72311556E-02  1.32247466E-01 -3.02053554E-02 -2.91020264E-01
 -2.96321509E-04  1.11741454E-02  1.58772798E-01  1.97497234E-02  5.43920717E-02
  1.14061706E-01 -1.80607166E-01  8.99755769E-02 -1.33811429E-01  1.38088343E-01
  2.82920660E-02 -2.81977333E-01 -1.02461776E-03  1.20576914E-02  1.43888989E-01
  1.29004954E-01 -9.85015180E-02  1.92999824E-01  1.59445844E-02  8.61453083E-03
 -3.22004778E-01  1.53157181E+00 -1.03861761E-02 -8.97285270E-01  2.39241272E-02
  1.74440248E-02 -6.34286540E-01 -4.43709289E-01 -2.63789565E-02 -4.34897697E-01
 -1.02836867E-01 -1.35699480E-01  8.78606986E-01  1.60509676E-01 -7.63208957E-03
 -3.62751778E-01 -6.74045751E-03 -1.29371304E-01  2.02242102E-01 -2.32074190E-01
  2.36032277E-01  2.19560855E-02 -7.98775465E-02  3.96063190E-02  2.10118105E-01
  1.72525335E-02  6.55011217E-02  1.03070523E-01  1.78417599E-01 -1.03333712E-01
 -1.20323056E-01
Mulliken Charges                           R   N=          11
  1.44297475E-01 -9.38966819E-01  1.76574807E-01  2.17106364E-01  2.55981472E-01
  4.96320844E-01 -5.52562067E-01 -7.89466609E-01  3.72510652E-01  4.02819382E-01
  2.15384499E-01
Optimization MaxStp                        I                2
Optimization Job offset                    I                0
Optimization Num results per geometry      I                2
Optimization Num geometry variables        I               33
Opt point       1 Results for each geome   R   N=           2
 -2.47886722E+02  0.00000000E+00
Opt point       1 Geometries               R   N=          33
  1.29567766E+00 -1.27250846E+00  1.49725607E-02  3.82705734E+00 -6.11598667E-02
 -1.45798997E-02  1.16346153E+00 -3.32581545E+00  6.89512106E-02  4.92992845E+00
 -5.90306833E-01  1.66841210E+00  3.64529729E+00  1.99552887E+00 -7.12992654E-02
 -1.02683252E+00  2.17892328E-01  4.05906149E-03 -1.03366898E+00  2.55479907E+00
 -4.86800200E-03 -3.25949245E+00 -1.13977304E+00  7.80572571E-02 -3.29675606E+00
 -3.00314226E+00 -3.37608688E-01 -4.87326404E+00 -1.55266367E-01 -2.06847585E-01
  4.94171693E+00 -6.86323279E-01 -1.65577489E+00
Opt point       1 Gradient at each geome   R   N=          33
  7.02801172E-06  1.04581830E-05  3.18987031E-05 -2.06524623E-05  4.16616315E-06
 -1.68505024E-05 -7.47289892E-07 -5.95938755E-07 -1.09024932E-05  4.23487210E-06
 -5.17638515E-06 -1.20557658E-06  3.28039535E-06 -4.78662700E-06  3.84531480E-06
  1.74979359E-05 -3.53307918E-05 -9.33231949E-06  5.71537265E-06  3.20741106E-05
 -4.97235024E-08 -2.29742724E-06  9.50115580E-06  6.70382642E-06 -7.04123627E-06
 -8.81349155E-06 -5.63276093E-06 -1.41134000E-05  5.44684389E-06  2.87213512E-07
  7.09522799E-06 -6.94322236E-06  1.23831824E-06
Optimization Number of geometries          I   N=           1
           1
